<?xml version="1.0" encoding="ISO-8859-1"?>
<modeling>
 <generator>
  <i name="program" type="string">vasp </i>
  <i name="version" type="string">6.3.1  </i>
  <i name="subversion" type="string">04May22 (build May 25 2022 13:42:54) complex                          parallel </i>
  <i name="platform" type="string">HPECrayEX_GCC </i>
  <i name="date" type="string">2022 09 13 </i>
  <i name="time" type="string">18:07:15 </i>
 </generator>
 <incar>
  <i type="string" name="SYSTEM">hexagonal-FASnI3</i>
  <i type="int" name="ISTART">     0</i>
  <i type="string" name="PREC">Accurate</i>
  <i type="string" name="ALGO">ALL</i>
  <i type="int" name="ISPIN">     1</i>
  <i type="int" name="NELM">   200</i>
  <i type="int" name="NELMIN">     8</i>
  <i type="int" name="IBRION">     2</i>
  <i name="EDIFF">      0.00000500</i>
  <i name="EDIFFG">     -0.01000000</i>
  <i type="int" name="NSW">  1000</i>
  <i type="int" name="ISIF">     0</i>
  <i type="int" name="ISYM">     0</i>
  <i name="ENCUT">    700.00000000</i>
  <i type="logical" name="LREAL"> F  </i>
  <i type="int" name="ISMEAR">     0</i>
  <i name="SIGMA">      0.05000000</i>
  <i type="logical" name="LWAVE"> F  </i>
  <i type="logical" name="LCHARG"> F  </i>
  <i type="logical" name="LASPH"> T  </i>
  <i type="string" name="METAGGA">R2SCAN</i>
 </incar>
 <primitive_cell>
  <structure name="primitive_cell" >
   <crystal>
    <varray name="basis" >
     <v>      14.63700000       0.00000000       0.00000000 </v>
     <v>       0.00000000       8.78600000       0.00000000 </v>
     <v>       0.00000000       0.00000000       8.28800000 </v>
    </varray>
    <i name="volume">   1065.84245242 </i>
    <varray name="rec_basis" >
     <v>       0.06832001       0.00000000       0.00000000 </v>
     <v>       0.00000000       0.11381744       0.00000000 </v>
     <v>       0.00000000       0.00000000       0.12065637 </v>
    </varray>
   </crystal>
   <varray name="positions" >
    <v>       0.67373627       0.46173379       0.23761073 </v>
    <v>       0.32662069       0.60373379       0.73762724 </v>
    <v>       0.84355575       0.96173379       0.72369352 </v>
    <v>       0.19247001       0.10373379       0.18470517 </v>
    <v>       0.59622449       0.39298806       0.04322896 </v>
    <v>       0.74554071       0.28065025       0.14416935 </v>
    <v>       0.79226676       0.36942785       0.31490434 </v>
    <v>       0.55508340       0.54903177       0.15314563 </v>
    <v>       0.67562073       0.54686924       0.33537160 </v>
    <v>       0.25497555       0.53498806       0.53634762 </v>
    <v>       0.40109581       0.42265025       0.65095064 </v>
    <v>       0.44269817       0.51142785       0.82577043 </v>
    <v>       0.21063351       0.69103177       0.64231108 </v>
    <v>       0.32560547       0.68886924       0.83542830 </v>
    <v>       0.70963559       0.89298806       0.69947940 </v>
    <v>       0.85073210       0.78065025       0.56668571 </v>
    <v>       0.95434970       0.86942785       0.61641900 </v>
    <v>       0.72961682       0.04903177       0.82642624 </v>
    <v>       0.88656958       0.04686924       0.78531871 </v>
    <v>       0.11945502       0.03498806       0.38444356 </v>
    <v>       0.11651440       0.92265025       0.10213270 </v>
    <v>       0.18864725       0.01142785       0.96166266 </v>
    <v>       0.19257355       0.19103177       0.41063456 </v>
    <v>       0.24308904       0.18886924       0.14499759 </v>
    <v>       0.58910000       0.23970000       0.79700000 </v>
    <v>       0.41090000       0.76030000       0.29700000 </v>
    <v>       0.91090000       0.73970000       0.29700000 </v>
    <v>       0.08910000       0.26030000       0.79700000 </v>
    <v>       0.33402000       0.99870000       0.75710000 </v>
    <v>       0.66598000       0.00130000       0.25710000 </v>
    <v>       0.16598000       0.49870000       0.25710000 </v>
    <v>       0.83402000       0.50130000       0.75710000 </v>
    <v>       0.41170000       0.24010000       0.20500000 </v>
    <v>       0.58830000       0.75990000       0.70500000 </v>
    <v>       0.08830000       0.74010000       0.70500000 </v>
    <v>       0.91170000       0.25990000       0.20500000 </v>
    <v>       0.74156217       0.36521661       0.22894999 </v>
    <v>       0.60382547       0.46514832       0.13945945 </v>
    <v>       0.39461029       0.50721661       0.73524737 </v>
    <v>       0.25971436       0.60714832       0.63314877 </v>
    <v>       0.88435243       0.86521661       0.62760963 </v>
    <v>       0.75574579       0.96514832       0.75248129 </v>
    <v>       0.16251505       0.00721661       0.07688798 </v>
    <v>       0.16712914       0.10714832       0.33594876 </v>
    <v>       0.50000000       0.00260000       0.00000000 </v>
    <v>       0.50000000       0.99740000       0.50000000 </v>
    <v>       0.00000000       0.50260000       0.50000000 </v>
    <v>       0.00000000       0.49740000       0.00000000 </v>
   </varray>
  </structure>
  <varray name="primitive_index" >
   <v type="int" >        1 </v>
   <v type="int" >        2 </v>
   <v type="int" >        3 </v>
   <v type="int" >        4 </v>
   <v type="int" >        5 </v>
   <v type="int" >        6 </v>
   <v type="int" >        7 </v>
   <v type="int" >        8 </v>
   <v type="int" >        9 </v>
   <v type="int" >       10 </v>
   <v type="int" >       11 </v>
   <v type="int" >       12 </v>
   <v type="int" >       13 </v>
   <v type="int" >       14 </v>
   <v type="int" >       15 </v>
   <v type="int" >       16 </v>
   <v type="int" >       17 </v>
   <v type="int" >       18 </v>
   <v type="int" >       19 </v>
   <v type="int" >       20 </v>
   <v type="int" >       21 </v>
   <v type="int" >       22 </v>
   <v type="int" >       23 </v>
   <v type="int" >       24 </v>
   <v type="int" >       25 </v>
   <v type="int" >       26 </v>
   <v type="int" >       27 </v>
   <v type="int" >       28 </v>
   <v type="int" >       29 </v>
   <v type="int" >       30 </v>
   <v type="int" >       31 </v>
   <v type="int" >       32 </v>
   <v type="int" >       33 </v>
   <v type="int" >       34 </v>
   <v type="int" >       35 </v>
   <v type="int" >       36 </v>
   <v type="int" >       37 </v>
   <v type="int" >       38 </v>
   <v type="int" >       39 </v>
   <v type="int" >       40 </v>
   <v type="int" >       41 </v>
   <v type="int" >       42 </v>
   <v type="int" >       43 </v>
   <v type="int" >       44 </v>
   <v type="int" >       45 </v>
   <v type="int" >       46 </v>
   <v type="int" >       47 </v>
   <v type="int" >       48 </v>
  </varray>
 </primitive_cell>
 <kpoints>
  <generation param="Gamma">
   <v type="int" name="divisions">       2        3        3 </v>
   <v name="usershift">      0.00000000       0.00000000       0.00000000 </v>
   <v name="genvec1">      0.50000000       0.00000000       0.00000000 </v>
   <v name="genvec2">      0.00000000       0.33333333       0.00000000 </v>
   <v name="genvec3">      0.00000000       0.00000000       0.33333333 </v>
   <v name="shift">      0.00000000       0.00000000       0.00000000 </v>
  </generation>
  <varray name="kpointlist" >
   <v>       0.00000000       0.00000000       0.00000000 </v>
   <v>       0.50000000       0.00000000       0.00000000 </v>
   <v>       0.00000000       0.33333333       0.00000000 </v>
   <v>       0.50000000       0.33333333       0.00000000 </v>
   <v>       0.00000000       0.00000000       0.33333333 </v>
   <v>       0.50000000       0.00000000       0.33333333 </v>
   <v>       0.00000000       0.33333333       0.33333333 </v>
   <v>       0.00000000      -0.33333333       0.33333333 </v>
   <v>       0.50000000       0.33333333       0.33333333 </v>
   <v>       0.50000000      -0.33333333       0.33333333 </v>
  </varray>
  <varray name="weights" >
   <v>       0.05555556 </v>
   <v>       0.05555556 </v>
   <v>       0.11111111 </v>
   <v>       0.11111111 </v>
   <v>       0.11111111 </v>
   <v>       0.11111111 </v>
   <v>       0.11111111 </v>
   <v>       0.11111111 </v>
   <v>       0.11111111 </v>
   <v>       0.11111111 </v>
  </varray>
 </kpoints>
 <parameters>
  <separator name="general" >
   <i type="string" name="SYSTEM">hexagonal-FASnI3</i>
   <i type="logical" name="LCOMPAT"> F  </i>
  </separator>
  <separator name="electronic" >
   <i type="string" name="PREC">accura</i>
   <i name="ENMAX">    700.00000000</i>
   <i name="ENAUG">    644.87300000</i>
   <i name="EDIFF">      0.00000500</i>
   <i type="int" name="IALGO">    58</i>
   <i type="int" name="IWAVPR">    11</i>
   <i type="int" name="NBANDS">   120</i>
   <i type="int" name="NBANDSLOW">    -1</i>
   <i type="int" name="NBANDSHIGH">    -1</i>
   <i name="NELECT">    176.00000000</i>
   <i type="int" name="TURBO">     0</i>
   <i type="int" name="IRESTART">     0</i>
   <i type="int" name="NREBOOT">     0</i>
   <i type="int" name="NMIN">     0</i>
   <i name="EREF">      0.00000000</i>
   <separator name="electronic smearing" >
    <i type="int" name="ISMEAR">     0</i>
    <i name="SIGMA">      0.05000000</i>
    <i name="KSPACING">      0.50000000</i>
    <i type="logical" name="KGAMMA"> T  </i>
    <i type="logical" name="KBLOWUP"> T  </i>
   </separator>
   <separator name="electronic projectors" >
    <i type="logical" name="LREAL"> F  </i>
    <v name="ROPT">      0.00000000      0.00000000      0.00000000      0.00000000      0.00000000</v>
    <i type="int" name="LMAXPAW">  -100</i>
    <i type="int" name="LMAXMIX">     2</i>
    <i type="logical" name="NLSPLINE"> F  </i>
   </separator>
   <separator name="electronic startup" >
    <i type="int" name="ISTART">     0</i>
    <i type="int" name="ICHARG">     2</i>
    <i type="int" name="INIWAV">     1</i>
   </separator>
   <separator name="electronic spin" >
    <i type="int" name="ISPIN">     1</i>
    <i type="logical" name="LNONCOLLINEAR"> F  </i>
    <v name="MAGMOM">      1.00000000      1.00000000      1.00000000      1.00000000      1.00000000      1.00000000      1.00000000      1.00000000      1.00000000      1.00000000      1.00000000      1.00000000      1.00000000      1.00000000      1.00000000      1.00000000      1.00000000      1.00000000      1.00000000      1.00000000
      1.00000000      1.00000000      1.00000000      1.00000000      1.00000000      1.00000000      1.00000000      1.00000000      1.00000000      1.00000000      1.00000000      1.00000000      1.00000000      1.00000000      1.00000000      1.00000000      1.00000000      1.00000000      1.00000000      1.00000000
      1.00000000      1.00000000      1.00000000      1.00000000      1.00000000      1.00000000      1.00000000      1.00000000</v>
    <i name="NUPDOWN">     -1.00000000</i>
    <i type="logical" name="LSORBIT"> F  </i>
    <v name="SAXIS">      0.00000000      0.00000000      1.00000000</v>
    <i type="logical" name="LSPIRAL"> F  </i>
    <v name="QSPIRAL">      0.00000000      0.00000000      0.00000000</v>
    <i type="logical" name="LZEROZ"> F  </i>
   </separator>
   <separator name="electronic exchange-correlation" >
    <i type="logical" name="LASPH"> T  </i>
    <i type="logical" name="LMETAGGA"> F  </i>
   </separator>
   <separator name="electronic convergence" >
    <i type="int" name="NELM">   200</i>
    <i type="int" name="NELMDL">    -5</i>
    <i type="int" name="NELMIN">     8</i>
    <i name="ENINI">    700.00000000</i>
    <separator name="electronic convergence detail" >
     <i type="logical" name="LDIAG"> T  </i>
     <i type="logical" name="LSUBROT"> F  </i>
     <i name="WEIMIN">      0.00100000</i>
     <i name="EBREAK">      0.00000001</i>
     <i name="DEPER">      0.30000000</i>
     <i type="int" name="NRMM">     4</i>
     <i name="TIME">      0.40000000</i>
    </separator>
   </separator>
   <separator name="electronic mixer" >
    <i name="AMIX">      0.40000000</i>
    <i name="BMIX">      1.00000000</i>
    <i name="AMIN">      0.10000000</i>
    <i name="AMIX_MAG">      1.60000000</i>
    <i name="BMIX_MAG">      1.00000000</i>
    <separator name="electronic mixer details" >
     <i type="int" name="IMIX">     4</i>
     <i type="logical" name="MIXFIRST"> F  </i>
     <i type="int" name="MAXMIX">   -45</i>
     <i name="WC">    100.00000000</i>
     <i type="int" name="INIMIX">     1</i>
     <i type="int" name="MIXPRE">     1</i>
     <i type="int" name="MREMOVE">     5</i>
    </separator>
   </separator>
   <separator name="electronic dipolcorrection" >
    <i type="logical" name="LDIPOL"> F  </i>
    <i type="logical" name="LMONO"> F  </i>
    <i type="int" name="IDIPOL">     0</i>
    <i name="EPSILON">      1.00000000</i>
    <v name="DIPOL">   -100.00000000   -100.00000000   -100.00000000</v>
    <i name="EFIELD">      0.00000000</i>
   </separator>
  </separator>
  <separator name="grids" >
   <i type="int" name="NGX">   126</i>
   <i type="int" name="NGY">    80</i>
   <i type="int" name="NGZ">    72</i>
   <i type="int" name="NGXF">   252</i>
   <i type="int" name="NGYF">   160</i>
   <i type="int" name="NGZF">   144</i>
   <i type="logical" name="ADDGRID"> F  </i>
  </separator>
  <separator name="ionic" >
   <i type="int" name="NSW">  1000</i>
   <i type="int" name="IBRION">     2</i>
   <i type="int" name="MDALGO">     0</i>
   <i type="int" name="ISIF">     0</i>
   <i name="PSTRESS">      0.00000000</i>
   <i name="EDIFFG">     -0.01000000</i>
   <i type="int" name="NFREE">     1</i>
   <i name="POTIM">      0.50000000</i>
   <i name="SMASS">     -3.00000000</i>
   <i name="SCALEE">      1.00000000</i>
  </separator>
  <separator name="ionic md" >
   <i name="TEBEG">      0.00010000</i>
   <i name="TEEND">      0.00010000</i>
   <i type="int" name="NBLOCK">     1</i>
   <i type="int" name="KBLOCK">  1000</i>
   <i type="int" name="NPACO">   256</i>
   <i name="APACO">     10.00000000</i>
  </separator>
  <separator name="symmetry" >
   <i type="int" name="ISYM">     0</i>
   <i name="SYMPREC">      0.00001000</i>
  </separator>
  <separator name="dos" >
   <i type="int" name="LORBIT">     0</i>
   <v name="RWIGS">     -1.00000000     -1.00000000     -1.00000000     -1.00000000     -1.00000000</v>
   <i type="int" name="NEDOS">   301</i>
   <i name="EMIN">     10.00000000</i>
   <i name="EMAX">    -10.00000000</i>
   <i name="EFERMI">      0.00000000</i>
  </separator>
  <separator name="writing" >
   <i type="int" name="NWRITE">     2</i>
   <i type="logical" name="LWAVE"> F  </i>
   <i type="logical" name="LDOWNSAMPLE"> F  </i>
   <i type="logical" name="LCHARG"> F  </i>
   <i type="logical" name="LPARD"> F  </i>
   <i type="logical" name="LVTOT"> F  </i>
   <i type="logical" name="LVHAR"> F  </i>
   <i type="logical" name="LELF"> F  </i>
   <i type="logical" name="LOPTICS"> F  </i>
   <v name="STM">      0.00000000      0.00000000      0.00000000      0.00000000      0.00000000      0.00000000      0.00000000</v>
  </separator>
  <separator name="performance" >
   <i type="int" name="NPAR">     8</i>
   <i type="int" name="NSIM">     4</i>
   <i type="int" name="NBLK">    -1</i>
   <i type="logical" name="LPLANE"> T  </i>
   <i type="logical" name="LSCALAPACK"> T  </i>
   <i type="logical" name="LSCAAWARE"> F  </i>
   <i type="logical" name="LSCALU"> F  </i>
   <i type="logical" name="LASYNC"> F  </i>
   <i type="logical" name="LORBITALREAL"> F  </i>
  </separator>
  <separator name="miscellaneous" >
   <i type="int" name="IDIOT">     3</i>
   <i type="int" name="PHON_NSTRUCT">    -1</i>
   <i type="logical" name="LMUSIC"> F  </i>
   <v name="POMASS">     12.01100000      1.00000000    126.90400000     14.00100000    118.71000000</v>
   <v name="DARWINR">      0.00000000      0.00000000      0.00000000      0.00000000      0.00000000</v>
   <v name="DARWINV">      1.00000000      1.00000000      1.00000000      1.00000000      1.00000000</v>
   <i type="logical" name="LCORR"> T  </i>
  </separator>
  <i type="logical" name="GGA_COMPAT"> T  </i>
  <i type="logical" name="LBERRY"> F  </i>
  <i type="int" name="ICORELEVEL">     0</i>
  <i type="logical" name="LDAU"> F  </i>
  <i type="int" name="I_CONSTRAINED_M">     0</i>
  <separator name="electronic exchange-correlation" >
   <i type="string" name="GGA">--</i>
   <i type="int" name="VOSKOWN">     0</i>
   <i type="logical" name="LHFCALC"> F  </i>
   <i type="string" name="PRECFOCK"></i>
   <i type="logical" name="LSYMGRAD"> F  </i>
   <i type="logical" name="LHFONE"> F  </i>
   <i type="logical" name="LRHFCALC"> F  </i>
   <i type="logical" name="LTHOMAS"> F  </i>
   <i type="logical" name="LMODELHF"> F  </i>
   <i type="logical" name="LFOCKACE"> F  </i>
   <i name="ENCUT4O">     -1.00000000</i>
   <i type="int" name="EXXOEP">     0</i>
   <i type="int" name="FOURORBIT">     0</i>
   <i name="AEXX">      0.00000000</i>
   <i name="HFALPHA">      0.00000000</i>
   <i name="MCALPHA">      0.00000000</i>
   <i name="ALDAX">      1.00000000</i>
   <i name="AGGAX">      1.00000000</i>
   <i name="ALDAC">      1.00000000</i>
   <i name="AGGAC">      1.00000000</i>
   <i type="int" name="NKREDX">     1</i>
   <i type="int" name="NKREDY">     1</i>
   <i type="int" name="NKREDZ">     1</i>
   <i type="logical" name="SHIFTRED"> F  </i>
   <i type="logical" name="ODDONLY"> F  </i>
   <i type="logical" name="EVENONLY"> F  </i>
   <i type="int" name="LMAXFOCK">     0</i>
   <i type="int" name="NMAXFOCKAE">     0</i>
   <i type="logical" name="LFOCKAEDFT"> F  </i>
   <i name="HFSCREEN">      0.00000000</i>
   <i name="HFSCREENC">      0.00000000</i>
   <i type="int" name="NBANDSGWLOW">     0</i>
  </separator>
  <separator name="vdW DFT" >
   <i type="logical" name="LUSE_VDW"> F  </i>
   <i name="Zab_VDW">     -0.84910000</i>
   <i name="PARAM1">      0.12340000</i>
   <i name="PARAM2">      1.00000000</i>
   <i name="PARAM3">      0.00000000</i>
  </separator>
  <separator name="model GW" >
   <i type="int" name="MODEL_GW">     0</i>
   <i name="MODEL_EPS0">     13.32303066</i>
   <i name="MODEL_ALPHA">      1.00000000</i>
  </separator>
  <separator name="linear response parameters" >
   <i type="logical" name="LEPSILON"> F  </i>
   <i type="logical" name="LRPA"> F  </i>
   <i type="logical" name="LNABLA"> F  </i>
   <i type="logical" name="LVEL"> F  </i>
   <i name="CSHIFT">      0.10000000</i>
   <i name="OMEGAMAX">     -1.00000000</i>
   <i name="DEG_THRESHOLD">      0.00200000</i>
   <i name="RTIME">     -0.10000000</i>
   <i name="WPLASMAI">      0.00000000</i>
   <v name="DFIELD">      0.00000000      0.00000000      0.00000000</v>
   <v name="WPLASMA">      0.00000000      0.00000000      0.00000000      0.00000000      0.00000000      0.00000000      0.00000000      0.00000000      0.00000000</v>
  </separator>
  <separator name="orbital magnetization" >
   <i type="logical" name="NUCIND"> F  </i>
   <v name="MAGPOS">      0.00000000      0.00000000      0.00000000</v>
   <i type="logical" name="LNICSALL"> T  </i>
   <i type="logical" name="ORBITALMAG"> F  </i>
   <i type="logical" name="LMAGBLOCH"> F  </i>
   <i type="logical" name="LCHIMAG"> F  </i>
   <i type="logical" name="LGAUGE"> T  </i>
   <i type="int" name="MAGATOM">     0</i>
   <v name="MAGDIPOL">      0.00000000      0.00000000      0.00000000</v>
   <v name="AVECCONST">      0.00000000      0.00000000      0.00000000</v>
  </separator>
  <separator name="response functions" >
   <i type="logical" name="LFINITE_TEMPERATURE"> F  </i>
   <i type="logical" name="LADDER"> F  </i>
   <i type="logical" name="LRPAFORCE"> F  </i>
   <i type="logical" name="LFXC"> F  </i>
   <i type="logical" name="LHARTREE"> T  </i>
   <i type="int" name="IBSE">     0</i>
   <v type="int" name="KPOINT">    -1     0     0     0</v>
   <i type="logical" name="LTCTC"> F  </i>
   <i type="logical" name="LTCTE"> F  </i>
   <i type="logical" name="LTETE"> F  </i>
   <i type="logical" name="LTRIPLET"> F  </i>
   <i type="logical" name="LFXCEPS"> F  </i>
   <i type="logical" name="LFXHEG"> F  </i>
   <i type="int" name="NATURALO">     2</i>
   <i type="logical" name="LHOLEGF"> F  </i>
   <i type="logical" name="L2ORDER"> F  </i>
   <i type="logical" name="LDMP1"> F  </i>
   <i type="logical" name="LMP2LT"> F  </i>
   <i type="logical" name="LSMP2LT"> F  </i>
   <i type="logical" name="LGWLF"> F  </i>
   <i name="ENCUTGW">     -2.00000000</i>
   <i name="ENCUTGWSOFT">     -2.00000000</i>
   <i name="ENCUTLF">     -1.00000000</i>
   <i type="logical" name="LESF_SPLINES"> F  </i>
   <i type="int" name="LMAXMP2">    -1</i>
   <i name="SCISSOR">      0.00000000</i>
   <i type="int" name="NOMEGA">     0</i>
   <i type="int" name="NOMEGAR">     0</i>
   <i type="int" name="NBANDSGW">    -1</i>
   <i type="int" name="NBANDSO">    -1</i>
   <i type="int" name="NBANDSV">    -1</i>
   <i type="int" name="NELMGW">     1</i>
   <i type="int" name="NELMHF">     1</i>
   <i type="int" name="DIM">     3</i>
   <i type="int" name="IESPILON">     4</i>
   <i type="int" name="ANTIRES">     0</i>
   <i name="OMEGAMAX">    -30.00000000</i>
   <i name="OMEGAMIN">    -30.00000000</i>
   <i name="OMEGATL">   -200.00000000</i>
   <i type="int" name="OMEGAGRID">     0</i>
   <i name="CSHIFT">     -0.10000000</i>
   <i type="logical" name="LSELFENERGY"> F  </i>
   <i type="logical" name="LSPECTRAL"> F  </i>
   <i type="logical" name="LSPECTRALGW"> F  </i>
   <i type="logical" name="LSINGLES"> F  </i>
   <i type="logical" name="LFERMIGW"> F  </i>
   <i type="logical" name="ODDONLYGW"> F  </i>
   <i type="logical" name="EVENONLYGW"> F  </i>
   <i type="int" name="NKREDLFX">     1</i>
   <i type="int" name="NKREDLFY">     1</i>
   <i type="int" name="NKREDLFZ">     1</i>
   <i type="int" name="MAXMEM">  2800</i>
   <i type="int" name="TELESCOPE">     0</i>
   <i type="int" name="NTAUPAR">    -1</i>
   <i type="int" name="NOMEGAPAR">    -1</i>
   <i name="DAMP_NEWTON">      0.80000001</i>
   <i name="LAMBDA">      1.00000000</i>
  </separator>
  <separator name="External order field" >
   <i name="OFIELD_KAPPA">      0.00000000</i>
   <v name="OFIELD_K">      0.00000000      0.00000000      0.00000000</v>
   <i name="OFIELD_Q6_NEAR">      0.00000000</i>
   <i name="OFIELD_Q6_FAR">      0.00000000</i>
   <i name="OFIELD_A">      0.00000000</i>
  </separator>
  <separator name="optional k-points parameters" >
   <i type="int" name="KPOINTS_OPT_MODE">     1</i>
   <i type="logical" name="LKPOINTS_OPT"> F  </i>
  </separator>
 </parameters>
 <atominfo>
  <atoms>      48 </atoms>
  <types>       5 </types>
  <array name="atoms" >
   <dimension dim="1">ion</dimension>
   <field type="string">element</field>
   <field type="int">atomtype</field>
   <set>
    <rc><c>C </c><c>   1</c></rc>
    <rc><c>C </c><c>   1</c></rc>
    <rc><c>C </c><c>   1</c></rc>
    <rc><c>C </c><c>   1</c></rc>
    <rc><c>H </c><c>   2</c></rc>
    <rc><c>H </c><c>   2</c></rc>
    <rc><c>H </c><c>   2</c></rc>
    <rc><c>H </c><c>   2</c></rc>
    <rc><c>H </c><c>   2</c></rc>
    <rc><c>H </c><c>   2</c></rc>
    <rc><c>H </c><c>   2</c></rc>
    <rc><c>H </c><c>   2</c></rc>
    <rc><c>H </c><c>   2</c></rc>
    <rc><c>H </c><c>   2</c></rc>
    <rc><c>H </c><c>   2</c></rc>
    <rc><c>H </c><c>   2</c></rc>
    <rc><c>H </c><c>   2</c></rc>
    <rc><c>H </c><c>   2</c></rc>
    <rc><c>H </c><c>   2</c></rc>
    <rc><c>H </c><c>   2</c></rc>
    <rc><c>H </c><c>   2</c></rc>
    <rc><c>H </c><c>   2</c></rc>
    <rc><c>H </c><c>   2</c></rc>
    <rc><c>H </c><c>   2</c></rc>
    <rc><c>I </c><c>   3</c></rc>
    <rc><c>I </c><c>   3</c></rc>
    <rc><c>I </c><c>   3</c></rc>
    <rc><c>I </c><c>   3</c></rc>
    <rc><c>I </c><c>   3</c></rc>
    <rc><c>I </c><c>   3</c></rc>
    <rc><c>I </c><c>   3</c></rc>
    <rc><c>I </c><c>   3</c></rc>
    <rc><c>I </c><c>   3</c></rc>
    <rc><c>I </c><c>   3</c></rc>
    <rc><c>I </c><c>   3</c></rc>
    <rc><c>I </c><c>   3</c></rc>
    <rc><c>N </c><c>   4</c></rc>
    <rc><c>N </c><c>   4</c></rc>
    <rc><c>N </c><c>   4</c></rc>
    <rc><c>N </c><c>   4</c></rc>
    <rc><c>N </c><c>   4</c></rc>
    <rc><c>N </c><c>   4</c></rc>
    <rc><c>N </c><c>   4</c></rc>
    <rc><c>N </c><c>   4</c></rc>
    <rc><c>Sn</c><c>   5</c></rc>
    <rc><c>Sn</c><c>   5</c></rc>
    <rc><c>Sn</c><c>   5</c></rc>
    <rc><c>Sn</c><c>   5</c></rc>
   </set>
  </array>
  <array name="atomtypes" >
   <dimension dim="1">type</dimension>
   <field type="int">atomspertype</field>
   <field type="string">element</field>
   <field>mass</field>
   <field>valence</field>
   <field type="string">pseudopotential</field>
   <set>
    <rc><c>   4</c><c>C </c><c>     12.01100000</c><c>      4.00000000</c><c>  PAW_PBE C 08Apr2002                   </c></rc>
    <rc><c>  20</c><c>H </c><c>      1.00000000</c><c>      1.00000000</c><c>  PAW_PBE H 15Jun2001                   </c></rc>
    <rc><c>  12</c><c>I </c><c>    126.90400000</c><c>      7.00000000</c><c>  PAW_PBE I 08Apr2002                   </c></rc>
    <rc><c>   8</c><c>N </c><c>     14.00100000</c><c>      5.00000000</c><c>  PAW_PBE N 08Apr2002                   </c></rc>
    <rc><c>   4</c><c>Sn</c><c>    118.71000000</c><c>      4.00000000</c><c>  PAW_PBE Sn 08Apr2002                  </c></rc>
   </set>
  </array>
 </atominfo>
 <structure name="initialpos" >
  <crystal>
   <varray name="basis" >
    <v>      14.63700000       0.00000000       0.00000000 </v>
    <v>       0.00000000       8.78600000       0.00000000 </v>
    <v>       0.00000000       0.00000000       8.28800000 </v>
   </varray>
   <i name="volume">   1065.84245242 </i>
   <varray name="rec_basis" >
    <v>       0.06832001       0.00000000       0.00000000 </v>
    <v>       0.00000000       0.11381744       0.00000000 </v>
    <v>       0.00000000       0.00000000       0.12065637 </v>
   </varray>
  </crystal>
  <varray name="positions" >
   <v>       0.67373627       0.46173379       0.23761073 </v>
   <v>       0.32662069       0.60373379       0.73762724 </v>
   <v>       0.84355575       0.96173379       0.72369352 </v>
   <v>       0.19247001       0.10373379       0.18470517 </v>
   <v>       0.59622449       0.39298806       0.04322896 </v>
   <v>       0.74554071       0.28065025       0.14416935 </v>
   <v>       0.79226676       0.36942785       0.31490434 </v>
   <v>       0.55508340       0.54903177       0.15314563 </v>
   <v>       0.67562073       0.54686924       0.33537160 </v>
   <v>       0.25497555       0.53498806       0.53634762 </v>
   <v>       0.40109581       0.42265025       0.65095064 </v>
   <v>       0.44269817       0.51142785       0.82577043 </v>
   <v>       0.21063351       0.69103177       0.64231108 </v>
   <v>       0.32560547       0.68886924       0.83542830 </v>
   <v>       0.70963559       0.89298806       0.69947940 </v>
   <v>       0.85073210       0.78065025       0.56668571 </v>
   <v>       0.95434970       0.86942785       0.61641900 </v>
   <v>       0.72961682       0.04903177       0.82642624 </v>
   <v>       0.88656958       0.04686924       0.78531871 </v>
   <v>       0.11945502       0.03498806       0.38444356 </v>
   <v>       0.11651440       0.92265025       0.10213270 </v>
   <v>       0.18864725       0.01142785       0.96166266 </v>
   <v>       0.19257355       0.19103177       0.41063456 </v>
   <v>       0.24308904       0.18886924       0.14499759 </v>
   <v>       0.58910000       0.23970000       0.79700000 </v>
   <v>       0.41090000       0.76030000       0.29700000 </v>
   <v>       0.91090000       0.73970000       0.29700000 </v>
   <v>       0.08910000       0.26030000       0.79700000 </v>
   <v>       0.33402000       0.99870000       0.75710000 </v>
   <v>       0.66598000       0.00130000       0.25710000 </v>
   <v>       0.16598000       0.49870000       0.25710000 </v>
   <v>       0.83402000       0.50130000       0.75710000 </v>
   <v>       0.41170000       0.24010000       0.20500000 </v>
   <v>       0.58830000       0.75990000       0.70500000 </v>
   <v>       0.08830000       0.74010000       0.70500000 </v>
   <v>       0.91170000       0.25990000       0.20500000 </v>
   <v>       0.74156217       0.36521661       0.22894999 </v>
   <v>       0.60382547       0.46514832       0.13945945 </v>
   <v>       0.39461029       0.50721661       0.73524737 </v>
   <v>       0.25971436       0.60714832       0.63314877 </v>
   <v>       0.88435243       0.86521661       0.62760963 </v>
   <v>       0.75574579       0.96514832       0.75248129 </v>
   <v>       0.16251505       0.00721661       0.07688798 </v>
   <v>       0.16712914       0.10714832       0.33594876 </v>
   <v>       0.50000000       0.00260000       0.00000000 </v>
   <v>       0.50000000       0.99740000       0.50000000 </v>
   <v>       0.00000000       0.50260000       0.50000000 </v>
   <v>       0.00000000       0.49740000       0.00000000 </v>
  </varray>
  <varray name="selective"  type="logical" >
   <v type="logical" >  T  T  T </v>
   <v type="logical" >  T  T  T </v>
   <v type="logical" >  T  T  T </v>
   <v type="logical" >  T  T  T </v>
   <v type="logical" >  T  T  T </v>
   <v type="logical" >  T  T  T </v>
   <v type="logical" >  T  T  T </v>
   <v type="logical" >  T  T  T </v>
   <v type="logical" >  T  T  T </v>
   <v type="logical" >  T  T  T </v>
   <v type="logical" >  T  T  T </v>
   <v type="logical" >  T  T  T </v>
   <v type="logical" >  T  T  T </v>
   <v type="logical" >  T  T  T </v>
   <v type="logical" >  T  T  T </v>
   <v type="logical" >  T  T  T </v>
   <v type="logical" >  T  T  T </v>
   <v type="logical" >  T  T  T </v>
   <v type="logical" >  T  T  T </v>
   <v type="logical" >  T  T  T </v>
   <v type="logical" >  T  T  T </v>
   <v type="logical" >  T  T  T </v>
   <v type="logical" >  T  T  T </v>
   <v type="logical" >  T  T  T </v>
   <v type="logical" >  F  F  F </v>
   <v type="logical" >  F  F  F </v>
   <v type="logical" >  F  F  F </v>
   <v type="logical" >  F  F  F </v>
   <v type="logical" >  F  F  F </v>
   <v type="logical" >  F  F  F </v>
   <v type="logical" >  F  F  F </v>
   <v type="logical" >  F  F  F </v>
   <v type="logical" >  F  F  F </v>
   <v type="logical" >  F  F  F </v>
   <v type="logical" >  F  F  F </v>
   <v type="logical" >  F  F  F </v>
   <v type="logical" >  T  T  T </v>
   <v type="logical" >  T  T  T </v>
   <v type="logical" >  T  T  T </v>
   <v type="logical" >  T  T  T </v>
   <v type="logical" >  T  T  T </v>
   <v type="logical" >  T  T  T </v>
   <v type="logical" >  T  T  T </v>
   <v type="logical" >  T  T  T </v>
   <v type="logical" >  F  F  F </v>
   <v type="logical" >  F  F  F </v>
   <v type="logical" >  F  F  F </v>
   <v type="logical" >  F  F  F </v>
  </varray>
  <nose>
   <v>      -3.00000000       0.00000000       0.00010000       0.00010000 </v>
  </nose>
 </structure>
 <calculation>
  <scstep>
   <time name="total">   11.79   11.83</time>
   <energy>
    <i name="alphaZ">    108.40866624 </i>
    <i name="ewald">  -4196.86636030 </i>
    <i name="hartreedc">  -2441.56354735 </i>
    <i name="XCdc">   -172.74080064 </i>
    <i name="pawpsdc">   5935.95709371 </i>
    <i name="pawaedc">  -5630.49819540 </i>
    <i name="eentropy">     -0.01870577 </i>
    <i name="bandstr">    115.71163512 </i>
    <i name="atom">   7121.46799656 </i>
    <i name="e_fr_energy">    839.85778217 </i>
    <i name="e_wo_entrp">    839.87648794 </i>
    <i name="e_0_energy">    839.86713506 </i>
   </energy>
  </scstep>
  <scstep>
   <time name="total">   12.51   12.52</time>
   <energy>
    <i name="e_fr_energy">   -457.84987128 </i>
    <i name="e_wo_entrp">   -457.84987128 </i>
    <i name="e_0_energy">   -457.84987128 </i>
   </energy>
  </scstep>
  <scstep>
   <time name="total">   12.29   12.30</time>
   <energy>
    <i name="e_fr_energy">   -635.76571257 </i>
    <i name="e_wo_entrp">   -635.76571257 </i>
    <i name="e_0_energy">   -635.76571257 </i>
   </energy>
  </scstep>
  <scstep>
   <time name="total">   12.13   12.13</time>
   <energy>
    <i name="e_fr_energy">   -641.31314683 </i>
    <i name="e_wo_entrp">   -641.31314683 </i>
    <i name="e_0_energy">   -641.31314683 </i>
   </energy>
  </scstep>
  <scstep>
   <time name="total">   14.02   14.05</time>
   <energy>
    <i name="e_fr_energy">   -641.48690817 </i>
    <i name="e_wo_entrp">   -641.48690817 </i>
    <i name="e_0_energy">   -641.48690817 </i>
   </energy>
  </scstep>
  <scstep>
   <time name="total">   14.41   14.42</time>
   <energy>
    <i name="e_fr_energy">   -575.33935400 </i>
    <i name="e_wo_entrp">   -575.33935400 </i>
    <i name="e_0_energy">   -575.33935400 </i>
   </energy>
  </scstep>
  <scstep>
   <time name="total">   14.39   14.40</time>
   <energy>
    <i name="e_fr_energy">   -587.40075687 </i>
    <i name="e_wo_entrp">   -587.40075687 </i>
    <i name="e_0_energy">   -587.40075687 </i>
   </energy>
  </scstep>
  <scstep>
   <time name="total">   14.37   14.39</time>
   <energy>
    <i name="e_fr_energy">   -588.93309792 </i>
    <i name="e_wo_entrp">   -588.93309792 </i>
    <i name="e_0_energy">   -588.93309792 </i>
   </energy>
  </scstep>
  <scstep>
   <time name="total">   14.38   14.39</time>
   <energy>
    <i name="e_fr_energy">   -589.43660416 </i>
    <i name="e_wo_entrp">   -589.43660416 </i>
    <i name="e_0_energy">   -589.43660416 </i>
   </energy>
  </scstep>
  <scstep>
   <time name="total">   14.37   14.37</time>
   <energy>
    <i name="e_fr_energy">   -589.58894049 </i>
    <i name="e_wo_entrp">   -589.58894049 </i>
    <i name="e_0_energy">   -589.58894049 </i>
   </energy>
  </scstep>
  <scstep>
   <time name="total">   14.36   14.38</time>
   <energy>
    <i name="e_fr_energy">   -589.63685163 </i>
    <i name="e_wo_entrp">   -589.63685163 </i>
    <i name="e_0_energy">   -589.63685163 </i>
   </energy>
  </scstep>
  <scstep>
   <time name="total">   14.37   14.38</time>
   <energy>
    <i name="e_fr_energy">   -589.64969600 </i>
    <i name="e_wo_entrp">   -589.64969600 </i>
    <i name="e_0_energy">   -589.64969600 </i>
   </energy>
  </scstep>
  <scstep>
   <time name="total">   14.39   14.40</time>
   <energy>
    <i name="e_fr_energy">   -589.65289727 </i>
    <i name="e_wo_entrp">   -589.65289727 </i>
    <i name="e_0_energy">   -589.65289727 </i>
   </energy>
  </scstep>
  <scstep>
   <time name="total">   14.38   14.39</time>
   <energy>
    <i name="e_fr_energy">   -589.65370367 </i>
    <i name="e_wo_entrp">   -589.65370367 </i>
    <i name="e_0_energy">   -589.65370367 </i>
   </energy>
  </scstep>
  <scstep>
   <time name="total">   14.37   14.38</time>
   <energy>
    <i name="e_fr_energy">   -589.65389159 </i>
    <i name="e_wo_entrp">   -589.65389159 </i>
    <i name="e_0_energy">   -589.65389159 </i>
   </energy>
  </scstep>
  <scstep>
   <time name="total">   14.36   14.37</time>
   <energy>
    <i name="e_fr_energy">   -589.65394110 </i>
    <i name="e_wo_entrp">   -589.65394110 </i>
    <i name="e_0_energy">   -589.65394110 </i>
   </energy>
  </scstep>
  <scstep>
   <time name="total">   14.37   14.38</time>
   <energy>
    <i name="e_fr_energy">   -589.65395485 </i>
    <i name="e_wo_entrp">   -589.65395485 </i>
    <i name="e_0_energy">   -589.65395485 </i>
   </energy>
  </scstep>
  <scstep>
   <time name="total">   16.59   16.60</time>
   <energy>
    <i name="alphaZ">    108.40866624 </i>
    <i name="ewald">  -4196.86636030 </i>
    <i name="hartreedc">  -2682.86702036 </i>
    <i name="XCdc">   -141.96847716 </i>
    <i name="pawpsdc">  13069.38545378 </i>
    <i name="pawaedc"> -12769.54846782 </i>
    <i name="eentropy">     -0.00000000 </i>
    <i name="bandstr">  -1097.66574902 </i>
    <i name="atom">   7121.46799656 </i>
    <i name="e_fr_energy">   -589.65395809 </i>
    <i name="e_wo_entrp">   -589.65395809 </i>
    <i name="e_0_energy">   -589.65395809 </i>
   </energy>
  </scstep>
  <structure>
   <crystal>
    <varray name="basis" >
     <v>      14.63700000       0.00000000       0.00000000 </v>
     <v>       0.00000000       8.78600000       0.00000000 </v>
     <v>       0.00000000       0.00000000       8.28800000 </v>
    </varray>
    <i name="volume">   1065.84245242 </i>
    <varray name="rec_basis" >
     <v>       0.06832001       0.00000000       0.00000000 </v>
     <v>       0.00000000       0.11381744       0.00000000 </v>
     <v>       0.00000000       0.00000000       0.12065637 </v>
    </varray>
   </crystal>
   <varray name="positions" >
    <v>       0.67373627       0.46173379       0.23761073 </v>
    <v>       0.32662069       0.60373379       0.73762724 </v>
    <v>       0.84355575       0.96173379       0.72369352 </v>
    <v>       0.19247001       0.10373379       0.18470517 </v>
    <v>       0.59622449       0.39298806       0.04322896 </v>
    <v>       0.74554071       0.28065025       0.14416935 </v>
    <v>       0.79226676       0.36942785       0.31490434 </v>
    <v>       0.55508340       0.54903177       0.15314563 </v>
    <v>       0.67562073       0.54686924       0.33537160 </v>
    <v>       0.25497555       0.53498806       0.53634762 </v>
    <v>       0.40109581       0.42265025       0.65095064 </v>
    <v>       0.44269817       0.51142785       0.82577043 </v>
    <v>       0.21063351       0.69103177       0.64231108 </v>
    <v>       0.32560547       0.68886924       0.83542830 </v>
    <v>       0.70963559       0.89298806       0.69947940 </v>
    <v>       0.85073210       0.78065025       0.56668571 </v>
    <v>       0.95434970       0.86942785       0.61641900 </v>
    <v>       0.72961682       0.04903177       0.82642624 </v>
    <v>       0.88656958       0.04686924       0.78531871 </v>
    <v>       0.11945502       0.03498806       0.38444356 </v>
    <v>       0.11651440       0.92265025       0.10213270 </v>
    <v>       0.18864725       0.01142785       0.96166266 </v>
    <v>       0.19257355       0.19103177       0.41063456 </v>
    <v>       0.24308904       0.18886924       0.14499759 </v>
    <v>       0.58910000       0.23970000       0.79700000 </v>
    <v>       0.41090000       0.76030000       0.29700000 </v>
    <v>       0.91090000       0.73970000       0.29700000 </v>
    <v>       0.08910000       0.26030000       0.79700000 </v>
    <v>       0.33402000       0.99870000       0.75710000 </v>
    <v>       0.66598000       0.00130000       0.25710000 </v>
    <v>       0.16598000       0.49870000       0.25710000 </v>
    <v>       0.83402000       0.50130000       0.75710000 </v>
    <v>       0.41170000       0.24010000       0.20500000 </v>
    <v>       0.58830000       0.75990000       0.70500000 </v>
    <v>       0.08830000       0.74010000       0.70500000 </v>
    <v>       0.91170000       0.25990000       0.20500000 </v>
    <v>       0.74156217       0.36521661       0.22894999 </v>
    <v>       0.60382547       0.46514832       0.13945945 </v>
    <v>       0.39461029       0.50721661       0.73524737 </v>
    <v>       0.25971436       0.60714832       0.63314877 </v>
    <v>       0.88435243       0.86521661       0.62760963 </v>
    <v>       0.75574579       0.96514832       0.75248129 </v>
    <v>       0.16251505       0.00721661       0.07688798 </v>
    <v>       0.16712914       0.10714832       0.33594876 </v>
    <v>       0.50000000       0.00260000       0.00000000 </v>
    <v>       0.50000000       0.99740000       0.50000000 </v>
    <v>       0.00000000       0.50260000       0.50000000 </v>
    <v>       0.00000000       0.49740000       0.00000000 </v>
   </varray>
  </structure>
  <varray name="forces" >
   <v>      -0.16070404       0.43781176       0.37190587 </v>
   <v>      -0.55896743       0.17762367      -0.04546286 </v>
   <v>       0.38433250       0.48929363       0.36480106 </v>
   <v>       0.01752876       0.20007692      -0.38425379 </v>
   <v>       0.14788306       0.04545213       0.22917152 </v>
   <v>      -0.22171531       0.45431842       0.53000645 </v>
   <v>      -0.89773080       0.00709087      -0.55324486 </v>
   <v>       0.54298055      -0.57579455       0.07064745 </v>
   <v>      -0.01112507      -0.37478697      -0.40870655 </v>
   <v>       0.16334027       0.25480705       0.25653691 </v>
   <v>      -0.01479999       0.46207476       0.39386890 </v>
   <v>      -0.54364731      -0.16006910      -0.78562473 </v>
   <v>       1.08070445      -0.39473120      -0.32267725 </v>
   <v>       0.01040867      -0.43690396      -0.46498021 </v>
   <v>       0.26847481       0.11842104       0.09731236 </v>
   <v>       0.14893575       0.48261210       0.41226770 </v>
   <v>      -0.72076119      -0.07710413       0.07324859 </v>
   <v>       0.29071035      -0.62762193      -0.56402940 </v>
   <v>      -0.21358945      -0.34973067      -0.26569254 </v>
   <v>       0.43191237       0.30639190      -0.30395049 </v>
   <v>       0.33475448       0.40755921      -0.01932687 </v>
   <v>      -0.22498803       0.02292348       0.59656031 </v>
   <v>      -0.35335348      -0.63315457      -0.61731395 </v>
   <v>      -0.50610804      -0.45582740       0.18582672 </v>
   <v>      -0.03224011       0.21753373      -0.22182486 </v>
   <v>       0.07453149      -0.02180063      -0.11181701 </v>
   <v>       0.24030881      -0.37829169      -1.14852833 </v>
   <v>      -0.06078998       0.16040832      -0.35490822 </v>
   <v>      -0.04841284       0.36205318      -0.07834746 </v>
   <v>      -0.13563573      -0.28289353       0.00155909 </v>
   <v>       0.04517155       0.29453674      -0.07753711 </v>
   <v>       0.01650592      -0.22473453       0.01694220 </v>
   <v>       0.27291117       0.14748353       0.10172670 </v>
   <v>      -1.03961657      -0.90854497      -0.10033838 </v>
   <v>      -2.26133308       1.33469128       0.96323023 </v>
   <v>       3.30434447      -1.27981378      -0.38833965 </v>
   <v>      -1.82231933       1.00449495       0.60216574 </v>
   <v>      -0.66002838       0.96036620      -0.08158327 </v>
   <v>       0.79137870      -0.65080581       0.53657986 </v>
   <v>       2.04724337      -0.83780885      -0.22291944 </v>
   <v>      -0.25455905       0.61309479       0.47658034 </v>
   <v>       0.72964062       1.10787800       0.55942848 </v>
   <v>      -0.06738370      -0.65662401      -0.20231013 </v>
   <v>      -0.10154860       0.07583446       1.03248489 </v>
   <v>      -0.09392074      -0.18010520       0.33109564 </v>
   <v>      -0.03164878      -0.05228449      -0.36170248 </v>
   <v>      -0.12266841      -0.46817783      -0.15327520 </v>
   <v>      -0.18440668      -0.11722235       0.03474802 </v>
  </varray>
  <energy>
   <i name="e_fr_energy">   -589.65395809 </i>
   <i name="e_wo_entrp">   -589.65395809 </i>
   <i name="e_0_energy">   -589.65395809 </i>
  </energy>
  <time name="totalsc">  258.33  258.58</time>
 </calculation>
 <calculation>
  <scstep>
   <time name="total">   14.38   14.39</time>
   <energy>
    <i name="alphaZ">    108.40866624 </i>
    <i name="ewald">  -4156.49156057 </i>
    <i name="hartreedc">  -2675.17088203 </i>
    <i name="XCdc">   -142.19146571 </i>
    <i name="pawpsdc">  16193.72523997 </i>
    <i name="pawaedc"> -15893.54910646 </i>
    <i name="eentropy">     -0.00000000 </i>
    <i name="bandstr">  -1123.93275944 </i>
    <i name="atom">   7121.46799656 </i>
    <i name="e_fr_energy">   -567.73387145 </i>
    <i name="e_wo_entrp">   -567.73387145 </i>
    <i name="e_0_energy">   -567.73387145 </i>
   </energy>
  </scstep>
  <scstep>
   <time name="total">   14.37   14.38</time>
   <energy>
    <i name="e_fr_energy">   -584.19691870 </i>
    <i name="e_wo_entrp">   -584.19691870 </i>
    <i name="e_0_energy">   -584.19691870 </i>
   </energy>
  </scstep>
  <scstep>
   <time name="total">   14.38   14.39</time>
   <energy>
    <i name="e_fr_energy">   -588.05828388 </i>
    <i name="e_wo_entrp">   -588.05828388 </i>
    <i name="e_0_energy">   -588.05828388 </i>
   </energy>
  </scstep>
  <scstep>
   <time name="total">   14.42   14.43</time>
   <energy>
    <i name="e_fr_energy">   -588.70569277 </i>
    <i name="e_wo_entrp">   -588.70569277 </i>
    <i name="e_0_energy">   -588.70569277 </i>
   </energy>
  </scstep>
  <scstep>
   <time name="total">   14.43   14.44</time>
   <energy>
    <i name="e_fr_energy">   -588.86793709 </i>
    <i name="e_wo_entrp">   -588.86793709 </i>
    <i name="e_0_energy">   -588.86793709 </i>
   </energy>
  </scstep>
  <scstep>
   <time name="total">   14.43   14.44</time>
   <energy>
    <i name="e_fr_energy">   -588.92055404 </i>
    <i name="e_wo_entrp">   -588.92055404 </i>
    <i name="e_0_energy">   -588.92055404 </i>
   </energy>
  </scstep>
  <scstep>
   <time name="total">   14.42   14.42</time>
   <energy>
    <i name="e_fr_energy">   -588.93914634 </i>
    <i name="e_wo_entrp">   -588.93914634 </i>
    <i name="e_0_energy">   -588.93914634 </i>
   </energy>
  </scstep>
  <scstep>
   <time name="total">   14.39   14.40</time>
   <energy>
    <i name="e_fr_energy">   -588.94482391 </i>
    <i name="e_wo_entrp">   -588.94482391 </i>
    <i name="e_0_energy">   -588.94482391 </i>
   </energy>
  </scstep>
  <scstep>
   <time name="total">   14.38   14.39</time>
   <energy>
    <i name="e_fr_energy">   -588.94619986 </i>
    <i name="e_wo_entrp">   -588.94619986 </i>
    <i name="e_0_energy">   -588.94619986 </i>
   </energy>
  </scstep>
  <scstep>
   <time name="total">   14.39   14.40</time>
   <energy>
    <i name="e_fr_energy">   -588.94651986 </i>
    <i name="e_wo_entrp">   -588.94651986 </i>
    <i name="e_0_energy">   -588.94651986 </i>
   </energy>
  </scstep>
  <scstep>
   <time name="total">   14.37   14.38</time>
   <energy>
    <i name="e_fr_energy">   -588.94660364 </i>
    <i name="e_wo_entrp">   -588.94660364 </i>
    <i name="e_0_energy">   -588.94660364 </i>
   </energy>
  </scstep>
  <scstep>
   <time name="total">   14.38   14.38</time>
   <energy>
    <i name="e_fr_energy">   -588.94662680 </i>
    <i name="e_wo_entrp">   -588.94662680 </i>
    <i name="e_0_energy">   -588.94662680 </i>
   </energy>
  </scstep>
  <scstep>
   <time name="total">   14.37   14.38</time>
   <energy>
    <i name="e_fr_energy">   -588.94663372 </i>
    <i name="e_wo_entrp">   -588.94663372 </i>
    <i name="e_0_energy">   -588.94663372 </i>
   </energy>
  </scstep>
  <scstep>
   <time name="total">   16.57   16.58</time>
   <energy>
    <i name="alphaZ">    108.40866624 </i>
    <i name="ewald">  -4156.49156057 </i>
    <i name="hartreedc">  -2709.26998083 </i>
    <i name="XCdc">   -139.54042778 </i>
    <i name="pawpsdc">  13368.68447077 </i>
    <i name="pawaedc"> -13069.03791885 </i>
    <i name="eentropy">     -0.00000000 </i>
    <i name="bandstr">  -1113.16788125 </i>
    <i name="atom">   7121.46799656 </i>
    <i name="e_fr_energy">   -588.94663570 </i>
    <i name="e_wo_entrp">   -588.94663570 </i>
    <i name="e_0_energy">   -588.94663570 </i>
   </energy>
  </scstep>
  <structure>
   <crystal>
    <varray name="basis" >
     <v>      14.63700000       0.00000000       0.00000000 </v>
     <v>       0.00000000       8.78600000       0.00000000 </v>
     <v>       0.00000000       0.00000000       8.28800000 </v>
    </varray>
    <i name="volume">   1065.84245242 </i>
    <varray name="rec_basis" >
     <v>       0.06832001       0.00000000       0.00000000 </v>
     <v>       0.00000000       0.11381744       0.00000000 </v>
     <v>       0.00000000       0.00000000       0.12065637 </v>
    </varray>
   </crystal>
   <varray name="positions" >
    <v>       0.67320660       0.46413775       0.23977551 </v>
    <v>       0.32477836       0.60470910       0.73736261 </v>
    <v>       0.84482249       0.96442043       0.72581695 </v>
    <v>       0.19252779       0.10483239       0.18246851 </v>
    <v>       0.59671191       0.39323763       0.04456292 </v>
    <v>       0.74480995       0.28314485       0.14725440 </v>
    <v>       0.78930789       0.36946679       0.31168402 </v>
    <v>       0.55687303       0.54587016       0.15355686 </v>
    <v>       0.67558406       0.54481134       0.33299260 </v>
    <v>       0.25551390       0.53638717       0.53784087 </v>
    <v>       0.40104703       0.42518744       0.65324327 </v>
    <v>       0.44090634       0.51054894       0.82119748 </v>
    <v>       0.21419544       0.68886436       0.64043284 </v>
    <v>       0.32563977       0.68647026       0.83272175 </v>
    <v>       0.71052046       0.89363829       0.70004583 </v>
    <v>       0.85122298       0.78330020       0.56908543 </v>
    <v>       0.95197412       0.86900448       0.61684536 </v>
    <v>       0.73057498       0.04558559       0.82314315 </v>
    <v>       0.88586560       0.04494892       0.78377217 </v>
    <v>       0.12087857       0.03667042       0.38267433 </v>
    <v>       0.11761773       0.92488810       0.10202020 </v>
    <v>       0.18790571       0.01155372       0.96513511 </v>
    <v>       0.19140892       0.18755521       0.40704131 </v>
    <v>       0.24142094       0.18636635       0.14607925 </v>
    <v>       0.58910000       0.23970000       0.79700000 </v>
    <v>       0.41090000       0.76030000       0.29700000 </v>
    <v>       0.91090000       0.73970000       0.29700000 </v>
    <v>       0.08910000       0.26030000       0.79700000 </v>
    <v>       0.33402000       0.99870000       0.75710000 </v>
    <v>       0.66598000       0.00130000       0.25710000 </v>
    <v>       0.16598000       0.49870000       0.25710000 </v>
    <v>       0.83402000       0.50130000       0.75710000 </v>
    <v>       0.41170000       0.24010000       0.20500000 </v>
    <v>       0.58830000       0.75990000       0.70500000 </v>
    <v>       0.08830000       0.74010000       0.70500000 </v>
    <v>       0.91170000       0.25990000       0.20500000 </v>
    <v>       0.73555591       0.37073214       0.23245507 </v>
    <v>       0.60165006       0.47042155       0.13898457 </v>
    <v>       0.39721862       0.50364313       0.73837068 </v>
    <v>       0.26646195       0.60254803       0.63185121 </v>
    <v>       0.88351342       0.86858302       0.63038370 </v>
    <v>       0.75815064       0.97123151       0.75573760 </v>
    <v>       0.16229296       0.00361118       0.07571038 </v>
    <v>       0.16679444       0.10756471       0.34195863 </v>
    <v>       0.50000000       0.00260000       0.00000000 </v>
    <v>       0.50000000       0.99740000       0.50000000 </v>
    <v>       0.00000000       0.50260000       0.50000000 </v>
    <v>       0.00000000       0.49740000       0.00000000 </v>
   </varray>
  </structure>
  <varray name="forces" >
   <v>      -4.89359063       2.61679792      -1.44238447 </v>
   <v>       6.18188439      -3.08170318       2.51108526 </v>
   <v>      -0.78719336       0.21951943       0.25490880 </v>
   <v>      -2.15176338      -1.81841474       2.24714976 </v>
   <v>      -0.07077866       0.59130802       0.57698663 </v>
   <v>      -0.75655080       1.17762028       0.86243695 </v>
   <v>      -0.69493777       0.33718332      -0.07520071 </v>
   <v>      -2.77828157       2.72785900       0.54164175 </v>
   <v>      -0.10485329       1.06094204       1.03502479 </v>
   <v>       0.45055081      -1.15896060      -1.08036828 </v>
   <v>       0.32496274      -0.72807426      -0.55744085 </v>
   <v>       2.62975381       0.00622370       2.58476371 </v>
   <v>       1.43417758      -1.15546526      -0.30504509 </v>
   <v>      -0.25181402       0.44662037       0.33349662 </v>
   <v>       1.16348860       1.06583211       0.79786368 </v>
   <v>      -0.15313799       0.44954461       0.39774551 </v>
   <v>       0.10759283       0.13192292       0.08184802 </v>
   <v>      -1.05499331       2.39342945       1.96288533 </v>
   <v>       1.14811942       1.06172268       0.69197231 </v>
   <v>      -1.05825377      -0.96724412       0.74523849 </v>
   <v>      -1.12264999      -1.22972655       0.37800206 </v>
   <v>       0.24873565      -0.08744628      -0.99115517 </v>
   <v>       0.89439815       1.97621798       1.69896746 </v>
   <v>       0.52406161       0.62478376      -0.38629511 </v>
   <v>      -0.02505681       0.16954503      -0.20251815 </v>
   <v>       0.04393660      -0.00029238      -0.08498777 </v>
   <v>       0.21915441      -0.34622895      -1.03076557 </v>
   <v>      -0.05453172       0.16528703      -0.32055981 </v>
   <v>      -0.06192999       0.33568843      -0.07545813 </v>
   <v>      -0.09111310      -0.25060277       0.00338818 </v>
   <v>       0.05860071       0.29581189      -0.04553159 </v>
   <v>       0.05129316      -0.20301410       0.02133217 </v>
   <v>       0.22750483       0.10674489       0.10522096 </v>
   <v>      -0.78580269      -0.75419072      -0.11082262 </v>
   <v>      -1.44431477       1.03913916       0.74296606 </v>
   <v>       2.58711329      -1.05347004      -0.29532334 </v>
   <v>       3.07658889      -3.84693097      -0.61240452 </v>
   <v>       3.83490353      -3.01800741      -0.26517473 </v>
   <v>      -4.68582706       2.02424500      -1.72297134 </v>
   <v>      -3.98178386       2.36525555      -2.22230549 </v>
   <v>      -0.10267627      -0.47250918      -0.41012532 </v>
   <v>       0.11800898      -3.28563989      -2.72777897 </v>
   <v>       1.40781801       2.15749416       1.82222749 </v>
   <v>       0.84995600      -1.35303332      -5.23221165 </v>
   <v>      -0.08585498      -0.14793985       0.30648571 </v>
   <v>      -0.04145997      -0.03058535      -0.34811298 </v>
   <v>      -0.15164406      -0.46238072      -0.15127353 </v>
   <v>      -0.19181020      -0.09487810      -0.00742255 </v>
  </varray>
  <energy>
   <i name="e_fr_energy">   -588.94663570 </i>
   <i name="e_wo_entrp">   -588.94663570 </i>
   <i name="e_0_energy">   -588.94663570 </i>
  </energy>
  <time name="totalsc">  210.17  210.29</time>
 </calculation>
 <calculation>
  <scstep>
   <time name="total">   14.37   14.37</time>
   <energy>
    <i name="alphaZ">    108.40866624 </i>
    <i name="ewald">  -4184.39101135 </i>
    <i name="hartreedc">  -2696.09656576 </i>
    <i name="XCdc">   -140.49552577 </i>
    <i name="pawpsdc">  14877.72608034 </i>
    <i name="pawaedc"> -14577.79101034 </i>
    <i name="eentropy">     -0.00000000 </i>
    <i name="bandstr">  -1089.52032966 </i>
    <i name="atom">   7121.46799656 </i>
    <i name="e_fr_energy">   -580.69169975 </i>
    <i name="e_wo_entrp">   -580.69169975 </i>
    <i name="e_0_energy">   -580.69169975 </i>
   </energy>
  </scstep>
  <scstep>
   <time name="total">   14.36   14.37</time>
   <energy>
    <i name="e_fr_energy">   -587.85213546 </i>
    <i name="e_wo_entrp">   -587.85213546 </i>
    <i name="e_0_energy">   -587.85213546 </i>
   </energy>
  </scstep>
  <scstep>
   <time name="total">   14.38   14.39</time>
   <energy>
    <i name="e_fr_energy">   -589.52760118 </i>
    <i name="e_wo_entrp">   -589.52760118 </i>
    <i name="e_0_energy">   -589.52760118 </i>
   </energy>
  </scstep>
  <scstep>
   <time name="total">   14.38   14.39</time>
   <energy>
    <i name="e_fr_energy">   -589.80153510 </i>
    <i name="e_wo_entrp">   -589.80153510 </i>
    <i name="e_0_energy">   -589.80153510 </i>
   </energy>
  </scstep>
  <scstep>
   <time name="total">   14.36   14.37</time>
   <energy>
    <i name="e_fr_energy">   -589.86447934 </i>
    <i name="e_wo_entrp">   -589.86447934 </i>
    <i name="e_0_energy">   -589.86447934 </i>
   </energy>
  </scstep>
  <scstep>
   <time name="total">   14.37   14.38</time>
   <energy>
    <i name="e_fr_energy">   -589.88341295 </i>
    <i name="e_wo_entrp">   -589.88341295 </i>
    <i name="e_0_energy">   -589.88341295 </i>
   </energy>
  </scstep>
  <scstep>
   <time name="total">   14.38   14.38</time>
   <energy>
    <i name="e_fr_energy">   -589.89027715 </i>
    <i name="e_wo_entrp">   -589.89027715 </i>
    <i name="e_0_energy">   -589.89027715 </i>
   </energy>
  </scstep>
  <scstep>
   <time name="total">   14.38   14.39</time>
   <energy>
    <i name="e_fr_energy">   -589.89240100 </i>
    <i name="e_wo_entrp">   -589.89240100 </i>
    <i name="e_0_energy">   -589.89240100 </i>
   </energy>
  </scstep>
  <scstep>
   <time name="total">   14.37   14.37</time>
   <energy>
    <i name="e_fr_energy">   -589.89290856 </i>
    <i name="e_wo_entrp">   -589.89290856 </i>
    <i name="e_0_energy">   -589.89290856 </i>
   </energy>
  </scstep>
  <scstep>
   <time name="total">   14.37   14.38</time>
   <energy>
    <i name="e_fr_energy">   -589.89302227 </i>
    <i name="e_wo_entrp">   -589.89302227 </i>
    <i name="e_0_energy">   -589.89302227 </i>
   </energy>
  </scstep>
  <scstep>
   <time name="total">   14.38   14.39</time>
   <energy>
    <i name="e_fr_energy">   -589.89305062 </i>
    <i name="e_wo_entrp">   -589.89305062 </i>
    <i name="e_0_energy">   -589.89305062 </i>
   </energy>
  </scstep>
  <scstep>
   <time name="total">   14.37   14.37</time>
   <energy>
    <i name="e_fr_energy">   -589.89305875 </i>
    <i name="e_wo_entrp">   -589.89305875 </i>
    <i name="e_0_energy">   -589.89305875 </i>
   </energy>
  </scstep>
  <scstep>
   <time name="total">   16.58   16.59</time>
   <energy>
    <i name="alphaZ">    108.40866624 </i>
    <i name="ewald">  -4184.39101135 </i>
    <i name="hartreedc">  -2691.14719719 </i>
    <i name="XCdc">   -141.18289062 </i>
    <i name="pawpsdc">  13157.70915444 </i>
    <i name="pawaedc"> -12857.92719734 </i>
    <i name="eentropy">     -0.00000000 </i>
    <i name="bandstr">  -1102.83058170 </i>
    <i name="atom">   7121.46799656 </i>
    <i name="e_fr_energy">   -589.89306096 </i>
    <i name="e_wo_entrp">   -589.89306096 </i>
    <i name="e_0_energy">   -589.89306096 </i>
   </energy>
  </scstep>
  <structure>
   <crystal>
    <varray name="basis" >
     <v>      14.63700000       0.00000000       0.00000000 </v>
     <v>       0.00000000       8.78600000       0.00000000 </v>
     <v>       0.00000000       0.00000000       8.28800000 </v>
    </varray>
    <i name="volume">   1065.84245242 </i>
    <varray name="rec_basis" >
     <v>       0.06832001       0.00000000       0.00000000 </v>
     <v>       0.00000000       0.11381744       0.00000000 </v>
     <v>       0.00000000       0.00000000       0.12065637 </v>
    </varray>
   </crystal>
   <varray name="positions" >
    <v>       0.67355438       0.46255933       0.23835413 </v>
    <v>       0.32598802       0.60406872       0.73753636 </v>
    <v>       0.84399076       0.96265641       0.72442272 </v>
    <v>       0.19248985       0.10411106       0.18393708 </v>
    <v>       0.59639188       0.39307377       0.04368706 </v>
    <v>       0.74528976       0.28150692       0.14522878 </v>
    <v>       0.79125066       0.36944122       0.31379846 </v>
    <v>       0.55569797       0.54794605       0.15328685 </v>
    <v>       0.67560814       0.54616254       0.33455463 </v>
    <v>       0.25516042       0.53546853       0.53686042 </v>
    <v>       0.40107906       0.42352154       0.65173795 </v>
    <v>       0.44208284       0.51112603       0.82420004 </v>
    <v>       0.21185670       0.69028746       0.64166608 </v>
    <v>       0.32561725       0.68804541       0.83449885 </v>
    <v>       0.70993946       0.89321136       0.69967391 </v>
    <v>       0.85090067       0.78156027       0.56750979 </v>
    <v>       0.95353391       0.86928246       0.61656542 </v>
    <v>       0.72994586       0.04784832       0.82529880 </v>
    <v>       0.88632783       0.04620978       0.78478762 </v>
    <v>       0.11994388       0.03556580       0.38383599 </v>
    <v>       0.11689329       0.92341875       0.10209407 </v>
    <v>       0.18839260       0.01147108       0.96285513 </v>
    <v>       0.19217361       0.18983789       0.40940060 </v>
    <v>       0.24251620       0.18800973       0.14536904 </v>
    <v>       0.58910000       0.23970000       0.79700000 </v>
    <v>       0.41090000       0.76030000       0.29700000 </v>
    <v>       0.91090000       0.73970000       0.29700000 </v>
    <v>       0.08910000       0.26030000       0.79700000 </v>
    <v>       0.33402000       0.99870000       0.75710000 </v>
    <v>       0.66598000       0.00130000       0.25710000 </v>
    <v>       0.16598000       0.49870000       0.25710000 </v>
    <v>       0.83402000       0.50130000       0.75710000 </v>
    <v>       0.41170000       0.24010000       0.20500000 </v>
    <v>       0.58830000       0.75990000       0.70500000 </v>
    <v>       0.08830000       0.74010000       0.70500000 </v>
    <v>       0.91170000       0.25990000       0.20500000 </v>
    <v>       0.73949957       0.36711069       0.23015366 </v>
    <v>       0.60307842       0.46695919       0.13929637 </v>
    <v>       0.39550601       0.50598944       0.73631994 </v>
    <v>       0.26203154       0.60556854       0.63270318 </v>
    <v>       0.88406431       0.86637266       0.62856226 </v>
    <v>       0.75657164       0.96723734       0.75359953 </v>
    <v>       0.16243879       0.00597847       0.07648359 </v>
    <v>       0.16701420       0.10729131       0.33801259 </v>
    <v>       0.50000000       0.00260000       0.00000000 </v>
    <v>       0.50000000       0.99740000       0.50000000 </v>
    <v>       0.00000000       0.50260000       0.50000000 </v>
    <v>       0.00000000       0.49740000       0.00000000 </v>
   </varray>
  </structure>
  <varray name="forces" >
   <v>      -1.60580198       1.02025374      -0.23938698 </v>
   <v>       1.72203091      -1.07715127       0.58779439 </v>
   <v>       0.03425217       0.43526953       0.34889418 </v>
   <v>      -0.73644691      -0.45467684       0.62172177 </v>
   <v>       0.07837037       0.22405646       0.34476824 </v>
   <v>      -0.39083960       0.71722379       0.65458672 </v>
   <v>      -0.81272390       0.12521075      -0.37763564 </v>
   <v>      -0.36638149       0.34201313       0.17826648 </v>
   <v>      -0.04436545       0.06827676       0.03823968 </v>
   <v>       0.30235403      -0.23651059      -0.18629368 </v>
   <v>       0.10679622       0.06605154       0.09844283 </v>
   <v>       0.33861195      -0.13970744       0.15439344 </v>
   <v>       1.23917723      -0.71561793      -0.31419756 </v>
   <v>      -0.08300374      -0.15252360      -0.21193936 </v>
   <v>       0.62866113       0.48682758       0.37254819 </v>
   <v>       0.04802922       0.47125128       0.40697326 </v>
   <v>      -0.44843412      -0.00190291       0.07866548 </v>
   <v>      -0.03845376       0.26730923       0.17134838 </v>
   <v>       0.20476307       0.08467846       0.02984348 </v>
   <v>      -0.02911839      -0.08208267       0.04871249 </v>
   <v>      -0.11011590      -0.10902077       0.09348761 </v>
   <v>      -0.07711787      -0.02437729       0.08680277 </v>
   <v>      -0.00499656       0.10545873       0.08612841 </v>
   <v>      -0.19117753      -0.12151449       0.00258065 </v>
   <v>      -0.03053328       0.20093582      -0.21572122 </v>
   <v>       0.06297290      -0.01290825      -0.10188842 </v>
   <v>       0.23309464      -0.36680521      -1.10731609 </v>
   <v>      -0.05812570       0.16221713      -0.34305577 </v>
   <v>      -0.05284913       0.35394769      -0.07745248 </v>
   <v>      -0.12005792      -0.27223181       0.00229703 </v>
   <v>       0.04968893       0.29648569      -0.06669117 </v>
   <v>       0.02821644      -0.21705788       0.01836734 </v>
   <v>       0.25808713       0.13357549       0.10312182 </v>
   <v>      -0.95115501      -0.85438590      -0.10442905 </v>
   <v>      -1.96599619       1.22764904       0.88383952 </v>
   <v>       3.04797602      -1.19846752      -0.35519023 </v>
   <v>      -0.36947068      -0.46769795       0.17550635 </v>
   <v>       0.67761617      -0.18248485      -0.06421855 </v>
   <v>      -1.02270196       0.41182307      -0.04930334 </v>
   <v>       0.05706635       0.36574080      -0.66151368 </v>
   <v>      -0.19617822       0.25011569       0.18079481 </v>
   <v>       0.33401376      -0.30462998      -0.47211037 </v>
   <v>       0.40292663       0.28066838       0.50671093 </v>
   <v>       0.29794568      -0.31643896      -1.15982905 </v>
   <v>      -0.09147592      -0.16872812       0.32275286 </v>
   <v>      -0.03549667      -0.04492265      -0.35714781 </v>
   <v>      -0.13268542      -0.46586323      -0.15278518 </v>
   <v>      -0.18694767      -0.10933168       0.02051651 </v>
  </varray>
  <energy>
   <i name="e_fr_energy">   -589.89306096 </i>
   <i name="e_wo_entrp">   -589.89306096 </i>
   <i name="e_0_energy">   -589.89306096 </i>
  </energy>
  <time name="totalsc">  195.54  195.65</time>
 </calculation>
 <calculation>
  <scstep>
   <time name="total">   14.38   14.38</time>
   <energy>
    <i name="alphaZ">    108.40866624 </i>
    <i name="ewald">  -4141.00237400 </i>
    <i name="hartreedc">  -2696.29508738 </i>
    <i name="XCdc">   -140.94383941 </i>
    <i name="pawpsdc">  15406.89514313 </i>
    <i name="pawaedc"> -15107.03860357 </i>
    <i name="eentropy">     -0.00000000 </i>
    <i name="bandstr">  -1134.09760829 </i>
    <i name="atom">   7121.46799656 </i>
    <i name="e_fr_energy">   -582.60570672 </i>
    <i name="e_wo_entrp">   -582.60570672 </i>
    <i name="e_0_energy">   -582.60570672 </i>
   </energy>
  </scstep>
  <scstep>
   <time name="total">   14.37   14.38</time>
   <energy>
    <i name="e_fr_energy">   -588.10687630 </i>
    <i name="e_wo_entrp">   -588.10687630 </i>
    <i name="e_0_energy">   -588.10687630 </i>
   </energy>
  </scstep>
  <scstep>
   <time name="total">   14.36   14.37</time>
   <energy>
    <i name="e_fr_energy">   -589.75635806 </i>
    <i name="e_wo_entrp">   -589.75635806 </i>
    <i name="e_0_energy">   -589.75635806 </i>
   </energy>
  </scstep>
  <scstep>
   <time name="total">   14.39   14.39</time>
   <energy>
    <i name="e_fr_energy">   -590.02560592 </i>
    <i name="e_wo_entrp">   -590.02560592 </i>
    <i name="e_0_energy">   -590.02560592 </i>
   </energy>
  </scstep>
  <scstep>
   <time name="total">   14.36   14.38</time>
   <energy>
    <i name="e_fr_energy">   -590.08845430 </i>
    <i name="e_wo_entrp">   -590.08845430 </i>
    <i name="e_0_energy">   -590.08845430 </i>
   </energy>
  </scstep>
  <scstep>
   <time name="total">   14.36   14.38</time>
   <energy>
    <i name="e_fr_energy">   -590.10821129 </i>
    <i name="e_wo_entrp">   -590.10821129 </i>
    <i name="e_0_energy">   -590.10821129 </i>
   </energy>
  </scstep>
  <scstep>
   <time name="total">   14.37   14.38</time>
   <energy>
    <i name="e_fr_energy">   -590.11547946 </i>
    <i name="e_wo_entrp">   -590.11547946 </i>
    <i name="e_0_energy">   -590.11547946 </i>
   </energy>
  </scstep>
  <scstep>
   <time name="total">   14.38   14.39</time>
   <energy>
    <i name="e_fr_energy">   -590.11761298 </i>
    <i name="e_wo_entrp">   -590.11761298 </i>
    <i name="e_0_energy">   -590.11761298 </i>
   </energy>
  </scstep>
  <scstep>
   <time name="total">   14.37   14.39</time>
   <energy>
    <i name="e_fr_energy">   -590.11813647 </i>
    <i name="e_wo_entrp">   -590.11813647 </i>
    <i name="e_0_energy">   -590.11813647 </i>
   </energy>
  </scstep>
  <scstep>
   <time name="total">   14.38   14.39</time>
   <energy>
    <i name="e_fr_energy">   -590.11826277 </i>
    <i name="e_wo_entrp">   -590.11826277 </i>
    <i name="e_0_energy">   -590.11826277 </i>
   </energy>
  </scstep>
  <scstep>
   <time name="total">   14.36   14.38</time>
   <energy>
    <i name="e_fr_energy">   -590.11829663 </i>
    <i name="e_wo_entrp">   -590.11829663 </i>
    <i name="e_0_energy">   -590.11829663 </i>
   </energy>
  </scstep>
  <scstep>
   <time name="total">   14.37   14.38</time>
   <energy>
    <i name="e_fr_energy">   -590.11830583 </i>
    <i name="e_wo_entrp">   -590.11830583 </i>
    <i name="e_0_energy">   -590.11830583 </i>
   </energy>
  </scstep>
  <scstep>
   <time name="total">   16.59   16.60</time>
   <energy>
    <i name="alphaZ">    108.40866624 </i>
    <i name="ewald">  -4141.00237400 </i>
    <i name="hartreedc">  -2724.60795803 </i>
    <i name="XCdc">   -139.44538442 </i>
    <i name="pawpsdc">  13428.95538985 </i>
    <i name="pawaedc"> -13129.30162880 </i>
    <i name="eentropy">     -0.00000000 </i>
    <i name="bandstr">  -1114.59301585 </i>
    <i name="atom">   7121.46799656 </i>
    <i name="e_fr_energy">   -590.11830847 </i>
    <i name="e_wo_entrp">   -590.11830847 </i>
    <i name="e_0_energy">   -590.11830847 </i>
   </energy>
  </scstep>
  <structure>
   <crystal>
    <varray name="basis" >
     <v>      14.63700000       0.00000000       0.00000000 </v>
     <v>       0.00000000       8.78600000       0.00000000 </v>
     <v>       0.00000000       0.00000000       8.28800000 </v>
    </varray>
    <i name="volume">   1065.84245242 </i>
    <varray name="rec_basis" >
     <v>       0.06832001       0.00000000       0.00000000 </v>
     <v>       0.00000000       0.11381744       0.00000000 </v>
     <v>       0.00000000       0.00000000       0.12065637 </v>
    </varray>
   </crystal>
   <varray name="positions" >
    <v>       0.66980185       0.46744727       0.23851124 </v>
    <v>       0.32881438       0.60065409       0.73966053 </v>
    <v>       0.84469467       0.96556717       0.72681681 </v>
    <v>       0.19091831       0.10301106       0.18521147 </v>
    <v>       0.59680438       0.39400887       0.04567300 </v>
    <v>       0.74407735       0.28534292       0.14927384 </v>
    <v>       0.78801429       0.36991383       0.31074899 </v>
    <v>       0.55579118       0.54761302       0.15417530 </v>
    <v>       0.67549351       0.54538706       0.33351917 </v>
    <v>       0.25608495       0.53530762       0.53688756 </v>
    <v>       0.40128688       0.42502146       0.65325501 </v>
    <v>       0.44192820       0.51018352       0.82252007 </v>
    <v>       0.21631941       0.68661986       0.63952698 </v>
    <v>       0.32545393       0.68630114       0.83234055 </v>
    <v>       0.71174523       0.89529680       0.70138506 </v>
    <v>       0.85124898       0.78458305       0.57026406 </v>
    <v>       0.95137898       0.86906519       0.61707917 </v>
    <v>       0.73033845       0.04710345       0.82432487 </v>
    <v>       0.88642294       0.04556205       0.78413361 </v>
    <v>       0.12058802       0.03610468       0.38314373 </v>
    <v>       0.11720230       0.92413616       0.10239693 </v>
    <v>       0.18785653       0.01144538       0.96491382 </v>
    <v>       0.19158401       0.18849203       0.40794551 </v>
    <v>       0.24127184       0.18632607       0.14591646 </v>
    <v>       0.58910000       0.23970000       0.79700000 </v>
    <v>       0.41090000       0.76030000       0.29700000 </v>
    <v>       0.91090000       0.73970000       0.29700000 </v>
    <v>       0.08910000       0.26030000       0.79700000 </v>
    <v>       0.33402000       0.99870000       0.75710000 </v>
    <v>       0.66598000       0.00130000       0.25710000 </v>
    <v>       0.16598000       0.49870000       0.25710000 </v>
    <v>       0.83402000       0.50130000       0.75710000 </v>
    <v>       0.41170000       0.24010000       0.20500000 </v>
    <v>       0.58830000       0.75990000       0.70500000 </v>
    <v>       0.08830000       0.74010000       0.70500000 </v>
    <v>       0.91170000       0.25990000       0.20500000 </v>
    <v>       0.73571202       0.36815848       0.23256897 </v>
    <v>       0.60346980       0.46891904       0.13881395 </v>
    <v>       0.39457991       0.50570446       0.73768282 </v>
    <v>       0.26550865       0.60460648       0.62951980 </v>
    <v>       0.88322109       0.86895097       0.63063460 </v>
    <v>       0.75849248       0.96915753       0.75340598 </v>
    <v>       0.16320396       0.00520283       0.07784291 </v>
    <v>       0.16749529       0.10635272       0.33654824 </v>
    <v>       0.50000000       0.00260000       0.00000000 </v>
    <v>       0.50000000       0.99740000       0.50000000 </v>
    <v>       0.00000000       0.50260000       0.50000000 </v>
    <v>       0.00000000       0.49740000       0.00000000 </v>
   </varray>
  </structure>
  <varray name="forces" >
   <v>       1.59937541      -1.38785217       0.09689132 </v>
   <v>      -1.66767318       0.75902901      -0.99323195 </v>
   <v>       0.09818515      -0.55547205      -0.53933960 </v>
   <v>       0.47350364       0.20297224      -0.46874163 </v>
   <v>       0.06565836      -0.04802289       0.02817319 </v>
   <v>      -0.55066245       0.10091698      -0.12640578 </v>
   <v>      -0.17699371       0.36139210       0.43447672 </v>
   <v>      -0.88211506       0.65202912       0.01576011 </v>
   <v>      -0.30647878       1.20806991       0.98489474 </v>
   <v>       0.34529310      -0.89501941      -0.87098702 </v>
   <v>       0.09290758      -0.28792598      -0.31353440 </v>
   <v>       0.75610038      -0.14083012       0.60029456 </v>
   <v>       0.60603339      -0.15175576      -0.16078039 </v>
   <v>       0.06787345       0.10101170       0.26474324 </v>
   <v>       0.58972176       0.26548751       0.18378002 </v>
   <v>      -0.40615530       0.10921400       0.17323345 </v>
   <v>       0.32228399       0.11638816       0.07028485 </v>
   <v>      -0.17737340       0.69136902       0.53527969 </v>
   <v>       0.99775157       1.08166674       0.73405950 </v>
   <v>      -0.28415512      -0.34390368       0.20527567 </v>
   <v>      -0.32327233      -0.38356945       0.11632565 </v>
   <v>       0.13275459       0.06234605      -0.35355471 </v>
   <v>       0.18343808       0.43710181       0.25149380 </v>
   <v>      -0.23598054      -0.07584378       0.02541050 </v>
   <v>      -0.03195094       0.22628519      -0.19713182 </v>
   <v>       0.07604979      -0.01374643      -0.10949649 </v>
   <v>       0.21185474      -0.33549577      -1.01332790 </v>
   <v>      -0.04630129       0.13989736      -0.33115096 </v>
   <v>      -0.04503126       0.32518453      -0.07412571 </v>
   <v>      -0.13955538      -0.29294124       0.00663279 </v>
   <v>       0.04617987       0.27842010      -0.07346134 </v>
   <v>       0.02232509      -0.20463593       0.01969609 </v>
   <v>       0.24466357       0.14448519       0.09630297 </v>
   <v>      -0.82935521      -0.77846565      -0.07774360 </v>
   <v>      -1.53492174       1.02523696       0.75037823 </v>
   <v>       2.61938601      -1.05639035      -0.31123337 </v>
   <v>      -1.05291466       0.45662036       0.18411854 </v>
   <v>      -1.09039190       0.34137794      -0.98223868 </v>
   <v>       1.21233573      -1.32292082       0.20435518 </v>
   <v>       0.78050278       0.67305939       0.81268788 </v>
   <v>       0.04550617       0.15746544       0.04749315 </v>
   <v>      -0.98977858      -0.31776865      -0.18642981 </v>
   <v>      -0.11348337      -0.15903906       0.46194094 </v>
   <v>      -0.27463367      -0.43677197       0.04044518 </v>
   <v>      -0.09041235      -0.17916211       0.33069358 </v>
   <v>      -0.03022145      -0.04198809      -0.36984051 </v>
   <v>      -0.12634914      -0.42287707      -0.12767999 </v>
   <v>      -0.18352340      -0.08462833       0.00531409 </v>
  </varray>
  <energy>
   <i name="e_fr_energy">   -590.11830847 </i>
   <i name="e_wo_entrp">   -590.11830847 </i>
   <i name="e_0_energy">   -590.11830847 </i>
  </energy>
  <time name="totalsc">  195.54  195.68</time>
 </calculation>
 <calculation>
  <scstep>
   <time name="total">   14.38   14.38</time>
   <energy>
    <i name="alphaZ">    108.40866624 </i>
    <i name="ewald">  -4152.40941694 </i>
    <i name="hartreedc">  -2721.76804380 </i>
    <i name="XCdc">   -139.58591999 </i>
    <i name="pawpsdc">  13568.27788641 </i>
    <i name="pawaedc"> -13268.58799180 </i>
    <i name="eentropy">     -0.00000000 </i>
    <i name="bandstr">  -1105.44460734 </i>
    <i name="atom">   7121.46799656 </i>
    <i name="e_fr_energy">   -589.64143067 </i>
    <i name="e_wo_entrp">   -589.64143067 </i>
    <i name="e_0_energy">   -589.64143067 </i>
   </energy>
  </scstep>
  <scstep>
   <time name="total">   14.38   14.38</time>
   <energy>
    <i name="e_fr_energy">   -590.01041025 </i>
    <i name="e_wo_entrp">   -590.01041025 </i>
    <i name="e_0_energy">   -590.01041025 </i>
   </energy>
  </scstep>
  <scstep>
   <time name="total">   14.36   14.37</time>
   <energy>
    <i name="e_fr_energy">   -590.12691538 </i>
    <i name="e_wo_entrp">   -590.12691538 </i>
    <i name="e_0_energy">   -590.12691538 </i>
   </energy>
  </scstep>
  <scstep>
   <time name="total">   14.36   14.37</time>
   <energy>
    <i name="e_fr_energy">   -590.14485669 </i>
    <i name="e_wo_entrp">   -590.14485669 </i>
    <i name="e_0_energy">   -590.14485669 </i>
   </energy>
  </scstep>
  <scstep>
   <time name="total">   14.38   14.39</time>
   <energy>
    <i name="e_fr_energy">   -590.14877321 </i>
    <i name="e_wo_entrp">   -590.14877321 </i>
    <i name="e_0_energy">   -590.14877321 </i>
   </energy>
  </scstep>
  <scstep>
   <time name="total">   14.36   14.37</time>
   <energy>
    <i name="e_fr_energy">   -590.14988089 </i>
    <i name="e_wo_entrp">   -590.14988089 </i>
    <i name="e_0_energy">   -590.14988089 </i>
   </energy>
  </scstep>
  <scstep>
   <time name="total">   14.37   14.38</time>
   <energy>
    <i name="e_fr_energy">   -590.15027399 </i>
    <i name="e_wo_entrp">   -590.15027399 </i>
    <i name="e_0_energy">   -590.15027399 </i>
   </energy>
  </scstep>
  <scstep>
   <time name="total">   14.37   14.39</time>
   <energy>
    <i name="e_fr_energy">   -590.15039643 </i>
    <i name="e_wo_entrp">   -590.15039643 </i>
    <i name="e_0_energy">   -590.15039643 </i>
   </energy>
  </scstep>
  <scstep>
   <time name="total">   14.37   14.38</time>
   <energy>
    <i name="e_fr_energy">   -590.15042775 </i>
    <i name="e_wo_entrp">   -590.15042775 </i>
    <i name="e_0_energy">   -590.15042775 </i>
   </energy>
  </scstep>
  <scstep>
   <time name="total">   14.37   14.38</time>
   <energy>
    <i name="e_fr_energy">   -590.15043496 </i>
    <i name="e_wo_entrp">   -590.15043496 </i>
    <i name="e_0_energy">   -590.15043496 </i>
   </energy>
  </scstep>
  <scstep>
   <time name="total">   16.57   16.59</time>
   <energy>
    <i name="alphaZ">    108.40866624 </i>
    <i name="ewald">  -4152.40941694 </i>
    <i name="hartreedc">  -2715.85124900 </i>
    <i name="XCdc">   -139.89814947 </i>
    <i name="pawpsdc">  13355.72231348 </i>
    <i name="pawaedc"> -13056.03403204 </i>
    <i name="eentropy">     -0.00000000 </i>
    <i name="bandstr">  -1111.55656558 </i>
    <i name="atom">   7121.46799656 </i>
    <i name="e_fr_energy">   -590.15043675 </i>
    <i name="e_wo_entrp">   -590.15043675 </i>
    <i name="e_0_energy">   -590.15043675 </i>
   </energy>
  </scstep>
  <structure>
   <crystal>
    <varray name="basis" >
     <v>      14.63700000       0.00000000       0.00000000 </v>
     <v>       0.00000000       8.78600000       0.00000000 </v>
     <v>       0.00000000       0.00000000       8.28800000 </v>
    </varray>
    <i name="volume">   1065.84245242 </i>
    <varray name="rec_basis" >
     <v>       0.06832001       0.00000000       0.00000000 </v>
     <v>       0.00000000       0.11381744       0.00000000 </v>
     <v>       0.00000000       0.00000000       0.12065637 </v>
    </varray>
   </crystal>
   <varray name="positions" >
    <v>       0.67076670       0.46619048       0.23847084 </v>
    <v>       0.32808766       0.60153206       0.73911436 </v>
    <v>       0.84451369       0.96481876       0.72620125 </v>
    <v>       0.19132238       0.10329389       0.18488380 </v>
    <v>       0.59669832       0.39376844       0.04516238 </v>
[...]
   <v>      -0.00548190      -0.00363494       0.00841168 </v>
   <v>       0.00199397       0.01291756       0.00731555 </v>
   <v>       0.00250665      -0.00417566      -0.01980450 </v>
   <v>      -0.33862858      -0.03544256      -0.05797812 </v>
   <v>      -0.32318864       0.05182919       0.02405170 </v>
   <v>      -0.24269158      -0.00055070      -0.00788434 </v>
   <v>      -0.19407186       0.06190983       0.04097055 </v>
  </varray>
  <energy>
   <i name="e_fr_energy">   -593.60789964 </i>
   <i name="e_wo_entrp">   -593.60789964 </i>
   <i name="e_0_energy">   -593.60789964 </i>
  </energy>
  <time name="totalsc">  123.24  123.36</time>
 </calculation>
 <calculation>
  <scstep>
   <time name="total">   14.36   14.36</time>
   <energy>
    <i name="alphaZ">    108.40866624 </i>
    <i name="ewald">  -4399.62467920 </i>
    <i name="hartreedc">  -2469.47822036 </i>
    <i name="XCdc">   -143.69480455 </i>
    <i name="pawpsdc">  12934.51115817 </i>
    <i name="pawaedc"> -12634.42965030 </i>
    <i name="eentropy">     -0.00000000 </i>
    <i name="bandstr">  -1110.76785220 </i>
    <i name="atom">   7121.46799656 </i>
    <i name="e_fr_energy">   -593.60738565 </i>
    <i name="e_wo_entrp">   -593.60738565 </i>
    <i name="e_0_energy">   -593.60738565 </i>
   </energy>
  </scstep>
  <scstep>
   <time name="total">   14.32   14.33</time>
   <energy>
    <i name="e_fr_energy">   -593.60782312 </i>
    <i name="e_wo_entrp">   -593.60782312 </i>
    <i name="e_0_energy">   -593.60782312 </i>
   </energy>
  </scstep>
  <scstep>
   <time name="total">   14.33   14.34</time>
   <energy>
    <i name="e_fr_energy">   -593.60793663 </i>
    <i name="e_wo_entrp">   -593.60793663 </i>
    <i name="e_0_energy">   -593.60793663 </i>
   </energy>
  </scstep>
  <scstep>
   <time name="total">   14.33   14.33</time>
   <energy>
    <i name="e_fr_energy">   -593.60795315 </i>
    <i name="e_wo_entrp">   -593.60795315 </i>
    <i name="e_0_energy">   -593.60795315 </i>
   </energy>
  </scstep>
  <scstep>
   <time name="total">   14.30   14.32</time>
   <energy>
    <i name="e_fr_energy">   -593.60795660 </i>
    <i name="e_wo_entrp">   -593.60795660 </i>
    <i name="e_0_energy">   -593.60795660 </i>
   </energy>
  </scstep>
  <scstep>
   <time name="total">   14.34   14.35</time>
   <energy>
    <i name="e_fr_energy">   -593.60795757 </i>
    <i name="e_wo_entrp">   -593.60795757 </i>
    <i name="e_0_energy">   -593.60795757 </i>
   </energy>
  </scstep>
  <scstep>
   <time name="total">   14.34   14.34</time>
   <energy>
    <i name="e_fr_energy">   -593.60795788 </i>
    <i name="e_wo_entrp">   -593.60795788 </i>
    <i name="e_0_energy">   -593.60795788 </i>
   </energy>
  </scstep>
  <scstep>
   <time name="total">   16.53   16.53</time>
   <energy>
    <i name="alphaZ">    108.40866624 </i>
    <i name="ewald">  -4399.62467920 </i>
    <i name="hartreedc">  -2469.58156299 </i>
    <i name="XCdc">   -143.69052310 </i>
    <i name="pawpsdc">  12935.27400845 </i>
    <i name="pawaedc"> -12635.19271471 </i>
    <i name="eentropy">     -0.00000000 </i>
    <i name="bandstr">  -1110.66914923 </i>
    <i name="atom">   7121.46799656 </i>
    <i name="e_fr_energy">   -593.60795798 </i>
    <i name="e_wo_entrp">   -593.60795798 </i>
    <i name="e_0_energy">   -593.60795798 </i>
   </energy>
  </scstep>
  <structure>
   <crystal>
    <varray name="basis" >
     <v>      14.63700000       0.00000000       0.00000000 </v>
     <v>       0.00000000       8.78600000       0.00000000 </v>
     <v>       0.00000000       0.00000000       8.28800000 </v>
    </varray>
    <i name="volume">   1065.84245242 </i>
    <varray name="rec_basis" >
     <v>       0.06832001       0.00000000       0.00000000 </v>
     <v>       0.00000000       0.11381744       0.00000000 </v>
     <v>       0.00000000       0.00000000       0.12065637 </v>
    </varray>
   </crystal>
   <varray name="positions" >
    <v>       0.66652761       0.53159072       0.28601204 </v>
    <v>       0.31461821       0.52130874       0.78543698 </v>
    <v>       0.85161418       0.03488638       0.76766783 </v>
    <v>       0.16982748       0.04428906       0.22617169 </v>
    <v>       0.64488824       0.41428957       0.07514692 </v>
    <v>       0.67685375       0.30757003       0.34932341 </v>
    <v>       0.69375977       0.43975756       0.50286042 </v>
    <v>       0.64122251       0.61032937       0.06273608 </v>
    <v>       0.67056010       0.64639542       0.33410963 </v>
    <v>       0.36386543       0.57390620       0.56042891 </v>
    <v>       0.44961739       0.46449988       0.79786230 </v>
    <v>       0.38683340       0.43386909       0.97099294 </v>
    <v>       0.24871661       0.60548278       0.59400585 </v>
    <v>       0.25197619       0.52304271       0.85552970 </v>
    <v>       0.76589498       0.89521867       0.89161821 </v>
    <v>       0.78197698       0.91485327       0.59643631 </v>
    <v>       0.86177010       0.04274243       0.52486970 </v>
    <v>       0.83395835       0.01575838       0.00735961 </v>
    <v>       0.90364198       0.12170256       0.78366037 </v>
    <v>       0.14913822      -0.05636129       0.44665706 </v>
    <v>       0.16343959       0.81665598       0.17580255 </v>
    <v>       0.18071166      -0.06199074       0.01279565 </v>
    <v>       0.16146768       0.13936443       0.44614610 </v>
    <v>       0.17937957       0.15483079       0.17012285 </v>
    <v>       0.58910000       0.23970000       0.79700000 </v>
    <v>       0.41090000       0.76030000       0.29700000 </v>
    <v>       0.91090000       0.73970000       0.29700000 </v>
    <v>       0.08910000       0.26030000       0.79700000 </v>
    <v>       0.33402000       0.99870000       0.75710000 </v>
    <v>       0.66598000       0.00130000       0.25710000 </v>
    <v>       0.16598000       0.49870000       0.25710000 </v>
    <v>       0.83402000       0.50130000       0.75710000 </v>
    <v>       0.41170000       0.24010000       0.20500000 </v>
    <v>       0.58830000       0.75990000       0.70500000 </v>
    <v>       0.08830000       0.74010000       0.70500000 </v>
    <v>       0.91170000       0.25990000       0.20500000 </v>
    <v>       0.67786415       0.41812814       0.38612051 </v>
    <v>       0.65016533       0.51664046       0.13140824 </v>
    <v>       0.38945813       0.47697739       0.85723078 </v>
    <v>       0.30905538       0.56366139       0.63463093 </v>
    <v>       0.82919125       0.99623651       0.62034807 </v>
    <v>       0.81579205      -0.02504334       0.89753046 </v>
    <v>       0.16930758      -0.07549855       0.13240918 </v>
    <v>       0.15923200       0.04103903       0.38306986 </v>
    <v>       0.50000000       0.00260000       0.00000000 </v>
    <v>       0.50000000       0.99740000       0.50000000 </v>
    <v>       0.00000000       0.50260000       0.50000000 </v>
    <v>       0.00000000       0.49740000       0.00000000 </v>
   </varray>
  </structure>
  <varray name="forces" >
   <v>      -0.00366866       0.00580876       0.01748666 </v>
   <v>      -0.00407636       0.01589125      -0.00953779 </v>
   <v>      -0.02374891      -0.02428680      -0.00307122 </v>
   <v>      -0.00562918      -0.00554044      -0.00634553 </v>
   <v>       0.00713771      -0.00959010      -0.01354216 </v>
   <v>       0.00141508       0.00358136      -0.00752321 </v>
   <v>      -0.00094814       0.00406480      -0.00212286 </v>
   <v>      -0.00208278       0.00468348      -0.00986747 </v>
   <v>      -0.00308864      -0.01220891      -0.00470875 </v>
   <v>      -0.00063043       0.00373425       0.00565856 </v>
   <v>       0.00338846       0.00584134      -0.00137077 </v>
   <v>       0.00189834      -0.01017041       0.00858430 </v>
   <v>       0.01406831      -0.00369752       0.00775914 </v>
   <v>       0.00670141      -0.00158214       0.00511296 </v>
   <v>       0.01436536       0.01154969      -0.00080686 </v>
   <v>       0.01146917       0.00531734       0.00922172 </v>
   <v>      -0.00083538      -0.00282113       0.00098589 </v>
   <v>      -0.00296662      -0.00067363      -0.00953689 </v>
   <v>       0.01844732       0.02607565      -0.00279386 </v>
   <v>       0.00208071      -0.00404070       0.00218472 </v>
   <v>       0.00180993      -0.00620519      -0.00141634 </v>
   <v>       0.00314465      -0.00166930       0.00135478 </v>
   <v>      -0.00280978       0.00788738       0.00232345 </v>
   <v>      -0.00027274      -0.00064273       0.00016973 </v>
   <v>       0.18889034       0.09785845      -0.04634539 </v>
   <v>       0.07163686       0.00789431      -0.06182498 </v>
   <v>       0.01660236      -0.00657316      -0.06251553 </v>
   <v>       0.12182186      -0.12584984      -0.04726747 </v>
   <v>       0.11809193       0.02300144       0.03643302 </v>
   <v>       0.15911450      -0.00359771       0.02248503 </v>
   <v>       0.12326202       0.04304651      -0.05979500 </v>
   <v>       0.00956278       0.02090408      -0.02524764 </v>
   <v>       0.01847906      -0.02010863       0.14418550 </v>
   <v>       0.23319969      -0.18842895       0.07165905 </v>
   <v>       0.04137781       0.18051212       0.00748979 </v>
   <v>      -0.03554709      -0.12765480       0.03259678 </v>
   <v>       0.00382956       0.00585570       0.00218063 </v>
   <v>       0.00368529       0.00661826       0.01004008 </v>
   <v>       0.00713177       0.00103057       0.00664946 </v>
   <v>      -0.01175418       0.00811103      -0.00746310 </v>
   <v>      -0.00236705      -0.00474472      -0.01378228 </v>
   <v>      -0.00733858      -0.00587848       0.00738713 </v>
   <v>       0.00189377       0.00722927       0.00709073 </v>
   <v>       0.00135024      -0.00850488      -0.01127605 </v>
   <v>      -0.33853755      -0.03538227      -0.05788782 </v>
   <v>      -0.32313774       0.05188193       0.02399536 </v>
   <v>      -0.24251029      -0.00048573      -0.00792628 </v>
   <v>      -0.19390617       0.06195916       0.04094081 </v>
  </varray>
  <energy>
   <i name="e_fr_energy">   -593.60795798 </i>
   <i name="e_wo_entrp">   -593.60795798 </i>
   <i name="e_0_energy">   -593.60795798 </i>
  </energy>
  <time name="totalsc">  123.29  123.37</time>
 </calculation>
 <calculation>
  <scstep>
   <time name="total">   14.35   14.35</time>
   <energy>
    <i name="alphaZ">    108.40866624 </i>
    <i name="ewald">  -4399.06378685 </i>
    <i name="hartreedc">  -2469.72343200 </i>
    <i name="XCdc">   -143.68370129 </i>
    <i name="pawpsdc">  12936.34485139 </i>
    <i name="pawaedc"> -12636.26434251 </i>
    <i name="eentropy">     -0.00000000 </i>
    <i name="bandstr">  -1111.08915164 </i>
    <i name="atom">   7121.46799656 </i>
    <i name="e_fr_energy">   -593.60290010 </i>
    <i name="e_wo_entrp">   -593.60290010 </i>
    <i name="e_0_energy">   -593.60290010 </i>
   </energy>
  </scstep>
  <scstep>
   <time name="total">   14.32   14.33</time>
   <energy>
    <i name="e_fr_energy">   -593.60683438 </i>
    <i name="e_wo_entrp">   -593.60683438 </i>
    <i name="e_0_energy">   -593.60683438 </i>
   </energy>
  </scstep>
  <scstep>
   <time name="total">   14.32   14.33</time>
   <energy>
    <i name="e_fr_energy">   -593.60785601 </i>
    <i name="e_wo_entrp">   -593.60785601 </i>
    <i name="e_0_energy">   -593.60785601 </i>
   </energy>
  </scstep>
  <scstep>
   <time name="total">   14.34   14.34</time>
   <energy>
    <i name="e_fr_energy">   -593.60800444 </i>
    <i name="e_wo_entrp">   -593.60800444 </i>
    <i name="e_0_energy">   -593.60800444 </i>
   </energy>
  </scstep>
  <scstep>
   <time name="total">   14.32   14.33</time>
   <energy>
    <i name="e_fr_energy">   -593.60803607 </i>
    <i name="e_wo_entrp">   -593.60803607 </i>
    <i name="e_0_energy">   -593.60803607 </i>
   </energy>
  </scstep>
  <scstep>
   <time name="total">   14.33   14.34</time>
   <energy>
    <i name="e_fr_energy">   -593.60804458 </i>
    <i name="e_wo_entrp">   -593.60804458 </i>
    <i name="e_0_energy">   -593.60804458 </i>
   </energy>
  </scstep>
  <scstep>
   <time name="total">   14.33   14.33</time>
   <energy>
    <i name="e_fr_energy">   -593.60804731 </i>
    <i name="e_wo_entrp">   -593.60804731 </i>
    <i name="e_0_energy">   -593.60804731 </i>
   </energy>
  </scstep>
  <scstep>
   <time name="total">   16.53   16.54</time>
   <energy>
    <i name="alphaZ">    108.40866624 </i>
    <i name="ewald">  -4399.06378685 </i>
    <i name="hartreedc">  -2470.03457653 </i>
    <i name="XCdc">   -143.67077482 </i>
    <i name="pawpsdc">  12938.38646053 </i>
    <i name="pawaedc"> -12638.30665131 </i>
    <i name="eentropy">     -0.00000000 </i>
    <i name="bandstr">  -1110.79538200 </i>
    <i name="atom">   7121.46799656 </i>
    <i name="e_fr_energy">   -593.60804818 </i>
    <i name="e_wo_entrp">   -593.60804818 </i>
    <i name="e_0_energy">   -593.60804818 </i>
   </energy>
  </scstep>
  <structure>
   <crystal>
    <varray name="basis" >
     <v>      14.63700000       0.00000000       0.00000000 </v>
     <v>       0.00000000       8.78600000       0.00000000 </v>
     <v>       0.00000000       0.00000000       8.28800000 </v>
    </varray>
    <i name="volume">   1065.84245242 </i>
    <varray name="rec_basis" >
     <v>       0.06832001       0.00000000       0.00000000 </v>
     <v>       0.00000000       0.11381744       0.00000000 </v>
     <v>       0.00000000       0.00000000       0.12065637 </v>
    </varray>
   </crystal>
   <varray name="positions" >
    <v>       0.66652664       0.53164009       0.28600573 </v>
    <v>       0.31465979       0.52137666       0.78551376 </v>
    <v>       0.85159313       0.03492339       0.76762145 </v>
    <v>       0.16982296       0.04421688       0.22616781 </v>
    <v>       0.64498694       0.41432085       0.07509230 </v>
    <v>       0.67691945       0.30760426       0.34926704 </v>
    <v>       0.69374547       0.43979083       0.50285414 </v>
    <v>       0.64125489       0.61035027       0.06271987 </v>
    <v>       0.67050860       0.64641788       0.33411305 </v>
    <v>       0.36382874       0.57404927       0.56052029 </v>
    <v>       0.44964201       0.46463726       0.79787605 </v>
    <v>       0.38692640       0.43386672       0.97092670 </v>
    <v>       0.24873138       0.60547487       0.59413224 </v>
    <v>       0.25205866       0.52306952       0.85563549 </v>
    <v>       0.76598463       0.89525004       0.89164829 </v>
    <v>       0.78203147       0.91483510       0.59648255 </v>
    <v>       0.86173479       0.04273917       0.52482856 </v>
    <v>       0.83398479       0.01586029       0.00729606 </v>
    <v>       0.90360405       0.12186944       0.78358869 </v>
    <v>       0.14916530      -0.05639893       0.44664331 </v>
    <v>       0.16351285       0.81659579       0.17582321 </v>
    <v>       0.18075079      -0.06208085       0.01282973 </v>
    <v>       0.16142391       0.13931611       0.44609863 </v>
    <v>       0.17934279       0.15474379       0.17009460 </v>
    <v>       0.58910000       0.23970000       0.79700000 </v>
    <v>       0.41090000       0.76030000       0.29700000 </v>
    <v>       0.91090000       0.73970000       0.29700000 </v>
    <v>       0.08910000       0.26030000       0.79700000 </v>
    <v>       0.33402000       0.99870000       0.75710000 </v>
    <v>       0.66598000       0.00130000       0.25710000 </v>
    <v>       0.16598000       0.49870000       0.25710000 </v>
    <v>       0.83402000       0.50130000       0.75710000 </v>
    <v>       0.41170000       0.24010000       0.20500000 </v>
    <v>       0.58830000       0.75990000       0.70500000 </v>
    <v>       0.08830000       0.74010000       0.70500000 </v>
    <v>       0.91170000       0.25990000       0.20500000 </v>
    <v>       0.67788622       0.41815915       0.38609461 </v>
    <v>       0.65020238       0.51667640       0.13140406 </v>
    <v>       0.38951231       0.47715011       0.85730368 </v>
    <v>       0.30908779       0.56372518       0.63473205 </v>
    <v>       0.82920467       0.99623644       0.62032713 </v>
    <v>       0.81583382      -0.02497420       0.89751529 </v>
    <v>       0.16933159      -0.07554994       0.13242378 </v>
    <v>       0.15922287       0.04100730       0.38301531 </v>
    <v>       0.50000000       0.00260000       0.00000000 </v>
    <v>       0.50000000       0.99740000       0.50000000 </v>
    <v>       0.00000000       0.50260000       0.50000000 </v>
    <v>       0.00000000       0.49740000       0.00000000 </v>
   </varray>
  </structure>
  <varray name="forces" >
   <v>      -0.00257469      -0.00649311       0.02004712 </v>
   <v>       0.00335618       0.01555547      -0.00656101 </v>
   <v>       0.00838639       0.00842333       0.00034329 </v>
   <v>      -0.00392046       0.00785218      -0.02132961 </v>
   <v>       0.00753881      -0.00447013      -0.00881426 </v>
   <v>       0.00132456       0.00546873      -0.00665146 </v>
   <v>      -0.00126162       0.00289731      -0.00375549 </v>
   <v>      -0.00248439       0.00699002      -0.01059074 </v>
   <v>      -0.00283373      -0.00503652      -0.00168313 </v>
   <v>       0.02530489       0.00440233      -0.00973786 </v>
   <v>       0.00785695       0.00693356      -0.00407699 </v>
   <v>      -0.00220480      -0.01536214       0.03033678 </v>
   <v>       0.01054538      -0.00222945       0.00685361 </v>
   <v>      -0.00631389      -0.00174595       0.00938617 </v>
   <v>       0.00489930       0.00203598       0.00002472 </v>
   <v>      -0.00050158      -0.00757160       0.00352762 </v>
   <v>       0.00476290       0.00228029      -0.00486413 </v>
   <v>       0.00165943       0.00525422       0.00206531 </v>
   <v>       0.00491433       0.01164682      -0.00540093 </v>
   <v>       0.00248883       0.00030421      -0.00099987 </v>
   <v>       0.00120825      -0.00540264      -0.00104557 </v>
   <v>       0.00422913       0.00110949      -0.00522156 </v>
   <v>      -0.00222901       0.01321695       0.00325842 </v>
   <v>       0.00037687       0.00289731      -0.00124044 </v>
   <v>       0.18878632       0.09815548      -0.04629005 </v>
   <v>       0.07163868       0.00783152      -0.06176693 </v>
   <v>       0.01640292      -0.00665361      -0.06237242 </v>
   <v>       0.12173598      -0.12565251      -0.04730771 </v>
   <v>       0.11804157       0.02316960       0.03649835 </v>
   <v>       0.15925878      -0.00348880       0.02242143 </v>
   <v>       0.12327121       0.04267987      -0.05947783 </v>
   <v>       0.00940888       0.02103744      -0.02523950 </v>
   <v>       0.01847786      -0.02033518       0.14370061 </v>
   <v>       0.23330222      -0.18839388       0.07150381 </v>
   <v>       0.04124852       0.18038503       0.00745542 </v>
   <v>      -0.03572185      -0.12765381       0.03282194 </v>
   <v>       0.00391613       0.00830277       0.00339982 </v>
   <v>       0.00240381       0.00120945      -0.00008230 </v>
   <v>       0.01735967       0.00091540      -0.00975083 </v>
   <v>      -0.03920260       0.00942095      -0.00121533 </v>
   <v>      -0.00446806      -0.00521701      -0.01186839 </v>
   <v>      -0.01268394      -0.01237658       0.00375621 </v>
   <v>       0.00163463      -0.00988051       0.00621828 </v>
   <v>      -0.00232343      -0.02115874       0.01459568 </v>
   <v>      -0.33836403      -0.03516341      -0.05757401 </v>
   <v>      -0.32283886       0.05216251       0.02384027 </v>
   <v>      -0.24227919      -0.00032477      -0.00798925 </v>
   <v>      -0.19353325       0.06207216       0.04085274 </v>
  </varray>
  <energy>
   <i name="e_fr_energy">   -593.60804818 </i>
   <i name="e_wo_entrp">   -593.60804818 </i>
   <i name="e_0_energy">   -593.60804818 </i>
  </energy>
  <time name="totalsc">  123.28  123.34</time>
 </calculation>
