hexagonal-FASnI3                        
           1
    14.637000    0.000000    0.000000
     0.000000    8.786000    0.000000
     0.000000    0.000000    8.288000
   C    H    I    N    Sn
     4    20    12     8     4
Direct configuration=     1
   0.67373627  0.46173379  0.23761073
   0.32662069  0.60373379  0.73762724
   0.84355575  0.96173379  0.72369352
   0.19247001  0.10373379  0.18470517
   0.59622449  0.39298806  0.04322896
   0.74554071  0.28065025  0.14416935
   0.79226676  0.36942785  0.31490434
   0.55508340  0.54903177  0.15314563
   0.67562073  0.54686924  0.33537160
   0.25497555  0.53498806  0.53634762
   0.40109581  0.42265025  0.65095064
   0.44269817  0.51142785  0.82577043
   0.21063351  0.69103177  0.64231108
   0.32560547  0.68886924  0.83542830
   0.70963559  0.89298806  0.69947940
   0.85073210  0.78065025  0.56668571
   0.95434970  0.86942785  0.61641900
   0.72961682  0.04903177  0.82642624
   0.88656958  0.04686924  0.78531871
   0.11945502  0.03498806  0.38444356
   0.11651440  0.92265025  0.10213270
   0.18864725  0.01142785  0.96166266
   0.19257355  0.19103177  0.41063456
   0.24308904  0.18886924  0.14499759
   0.58910000  0.23970000  0.79700000
   0.41090000  0.76030000  0.29700000
   0.91090000  0.73970000  0.29700000
   0.08910000  0.26030000  0.79700000
   0.33402000  0.99870000  0.75710000
   0.66598000  0.00130000  0.25710000
   0.16598000  0.49870000  0.25710000
   0.83402000  0.50130000  0.75710000
   0.41170000  0.24010000  0.20500000
   0.58830000  0.75990000  0.70500000
   0.08830000  0.74010000  0.70500000
   0.91170000  0.25990000  0.20500000
   0.74156217  0.36521661  0.22894999
   0.60382547  0.46514832  0.13945945
   0.39461029  0.50721661  0.73524737
   0.25971436  0.60714832  0.63314877
   0.88435243  0.86521661  0.62760963
   0.75574579  0.96514832  0.75248129
   0.16251505  0.00721661  0.07688798
   0.16712914  0.10714832  0.33594876
   0.50000000  0.00260000  0.00000000
   0.50000000  0.99740000  0.50000000
   0.00000000  0.50260000  0.50000000
   0.00000000  0.49740000  0.00000000
Direct configuration=     2
   0.67320660  0.46413775  0.23977551
   0.32477836  0.60470910  0.73736261
   0.84482249  0.96442043  0.72581695
   0.19252779  0.10483239  0.18246851
   0.59671191  0.39323763  0.04456292
   0.74480995  0.28314485  0.14725440
   0.78930789  0.36946679  0.31168402
   0.55687303  0.54587016  0.15355686
   0.67558406  0.54481134  0.33299260
   0.25551390  0.53638717  0.53784087
   0.40104703  0.42518744  0.65324327
   0.44090634  0.51054894  0.82119748
   0.21419544  0.68886436  0.64043284
   0.32563977  0.68647026  0.83272175
   0.71052046  0.89363829  0.70004583
   0.85122298  0.78330020  0.56908543
   0.95197412  0.86900448  0.61684536
   0.73057498  0.04558559  0.82314315
   0.88586560  0.04494892  0.78377217
   0.12087857  0.03667042  0.38267433
   0.11761773  0.92488810  0.10202020
   0.18790571  0.01155372  0.96513511
   0.19140892  0.18755521  0.40704131
   0.24142094  0.18636635  0.14607925
   0.58910000  0.23970000  0.79700000
   0.41090000  0.76030000  0.29700000
   0.91090000  0.73970000  0.29700000
   0.08910000  0.26030000  0.79700000
   0.33402000  0.99870000  0.75710000
   0.66598000  0.00130000  0.25710000
   0.16598000  0.49870000  0.25710000
   0.83402000  0.50130000  0.75710000
   0.41170000  0.24010000  0.20500000
   0.58830000  0.75990000  0.70500000
   0.08830000  0.74010000  0.70500000
   0.91170000  0.25990000  0.20500000
   0.73555591  0.37073214  0.23245507
   0.60165006  0.47042155  0.13898457
   0.39721862  0.50364313  0.73837068
   0.26646195  0.60254803  0.63185121
   0.88351342  0.86858302  0.63038370
   0.75815064  0.97123151  0.75573760
   0.16229296  0.00361118  0.07571038
   0.16679444  0.10756471  0.34195863
   0.50000000  0.00260000  0.00000000
   0.50000000  0.99740000  0.50000000
   0.00000000  0.50260000  0.50000000
   0.00000000  0.49740000  0.00000000
Direct configuration=     3
   0.67355438  0.46255933  0.23835413
   0.32598802  0.60406872  0.73753636
   0.84399076  0.96265641  0.72442272
   0.19248985  0.10411106  0.18393708
   0.59639188  0.39307377  0.04368706
   0.74528976  0.28150692  0.14522878
   0.79125066  0.36944122  0.31379846
   0.55569797  0.54794605  0.15328685
   0.67560814  0.54616254  0.33455463
   0.25516042  0.53546853  0.53686042
   0.40107906  0.42352154  0.65173795
   0.44208284  0.51112603  0.82420004
   0.21185670  0.69028746  0.64166608
   0.32561725  0.68804541  0.83449885
   0.70993946  0.89321136  0.69967391
   0.85090067  0.78156027  0.56750979
   0.95353391  0.86928246  0.61656542
   0.72994586  0.04784832  0.82529880
   0.88632783  0.04620978  0.78478762
   0.11994388  0.03556580  0.38383599
   0.11689329  0.92341875  0.10209407
   0.18839260  0.01147108  0.96285513
   0.19217361  0.18983789  0.40940060
   0.24251620  0.18800973  0.14536904
   0.58910000  0.23970000  0.79700000
   0.41090000  0.76030000  0.29700000
   0.91090000  0.73970000  0.29700000
   0.08910000  0.26030000  0.79700000
   0.33402000  0.99870000  0.75710000
   0.66598000  0.00130000  0.25710000
   0.16598000  0.49870000  0.25710000
   0.83402000  0.50130000  0.75710000
   0.41170000  0.24010000  0.20500000
   0.58830000  0.75990000  0.70500000
   0.08830000  0.74010000  0.70500000
   0.91170000  0.25990000  0.20500000
   0.73949957  0.36711069  0.23015366
   0.60307842  0.46695919  0.13929637
   0.39550601  0.50598944  0.73631994
   0.26203154  0.60556854  0.63270318
   0.88406431  0.86637266  0.62856226
   0.75657164  0.96723734  0.75359953
   0.16243879  0.00597847  0.07648359
   0.16701420  0.10729131  0.33801259
   0.50000000  0.00260000  0.00000000
   0.50000000  0.99740000  0.50000000
   0.00000000  0.50260000  0.50000000
   0.00000000  0.49740000  0.00000000
Direct configuration=     4
   0.66980185  0.46744727  0.23851124
   0.32881438  0.60065409  0.73966053
   0.84469467  0.96556717  0.72681681
   0.19091831  0.10301106  0.18521147
   0.59680438  0.39400887  0.04567300
   0.74407735  0.28534292  0.14927384
   0.78801429  0.36991383  0.31074899
   0.55579118  0.54761302  0.15417530
   0.67549351  0.54538706  0.33351917
   0.25608495  0.53530762  0.53688756
   0.40128688  0.42502146  0.65325501
   0.44192820  0.51018352  0.82252007
   0.21631941  0.68661986  0.63952698
   0.32545393  0.68630114  0.83234055
   0.71174523  0.89529680  0.70138506
   0.85124898  0.78458305  0.57026406
   0.95137898  0.86906519  0.61707917
   0.73033845  0.04710345  0.82432487
   0.88642294  0.04556205  0.78413361
   0.12058802  0.03610468  0.38314373
   0.11720230  0.92413616  0.10239693
   0.18785653  0.01144538  0.96491382
   0.19158401  0.18849203  0.40794551
   0.24127184  0.18632607  0.14591646
   0.58910000  0.23970000  0.79700000
   0.41090000  0.76030000  0.29700000
   0.91090000  0.73970000  0.29700000
   0.08910000  0.26030000  0.79700000
   0.33402000  0.99870000  0.75710000
   0.66598000  0.00130000  0.25710000
   0.16598000  0.49870000  0.25710000
   0.83402000  0.50130000  0.75710000
   0.41170000  0.24010000  0.20500000
   0.58830000  0.75990000  0.70500000
   0.08830000  0.74010000  0.70500000
   0.91170000  0.25990000  0.20500000
   0.73571202  0.36815848  0.23256897
   0.60346980  0.46891904  0.13881395
   0.39457991  0.50570446  0.73768282
   0.26550865  0.60460648  0.62951980
   0.88322109  0.86895097  0.63063460
   0.75849248  0.96915753  0.75340598
   0.16320396  0.00520283  0.07784291
   0.16749529  0.10635272  0.33654824
   0.50000000  0.00260000  0.00000000
   0.50000000  0.99740000  0.50000000
   0.00000000  0.50260000  0.50000000
   0.00000000  0.49740000  0.00000000
Direct configuration=     5
   0.67076670  0.46619048  0.23847084
   0.32808766  0.60153206  0.73911436
   0.84451369  0.96481876  0.72620125
   0.19132238  0.10329389  0.18488380
   0.59669832  0.39376844  0.04516238
   0.74438909  0.28435661  0.14823378
   0.78884643  0.36979232  0.31153306
   0.55576721  0.54769865  0.15394686
   0.67552299  0.54558645  0.33378541
   0.25584724  0.53534900  0.53688058
   0.40123345  0.42463580  0.65286494
   0.44196796  0.51042586  0.82295202
   0.21517196  0.68756287  0.64007698
   0.32549592  0.68674962  0.83289549
   0.71128093  0.89476059  0.70094509
   0.85115942  0.78380583  0.56955589
   0.95193305  0.86912106  0.61694707
   0.73023751  0.04729497  0.82457529
   0.88639848  0.04572859  0.78430177
   0.12042240  0.03596612  0.38332173
   0.11712284  0.92395170  0.10231906
   0.18799436  0.01145199  0.96438449
   0.19173561  0.18883807  0.40831965
   0.24159179  0.18675897  0.14577571
   0.58910000  0.23970000  0.79700000
   0.41090000  0.76030000  0.29700000
   0.91090000  0.73970000  0.29700000
   0.08910000  0.26030000  0.79700000
   0.33402000  0.99870000  0.75710000
   0.66598000  0.00130000  0.25710000
   0.16598000  0.49870000  0.25710000
   0.83402000  0.50130000  0.75710000
   0.41170000  0.24010000  0.20500000
   0.58830000  0.75990000  0.70500000
   0.08830000  0.74010000  0.70500000
   0.91170000  0.25990000  0.20500000
   0.73668587  0.36788907  0.23194794
   0.60336917  0.46841513  0.13893799
   0.39481803  0.50577773  0.73733239
   0.26461462  0.60485385  0.63033831
   0.88343790  0.86828804  0.63010176
   0.75799860  0.96866381  0.75345574
   0.16300722  0.00540227  0.07749340
   0.16737160  0.10659405  0.33692476
   0.50000000  0.00260000  0.00000000
   0.50000000  0.99740000  0.50000000
   0.00000000  0.50260000  0.50000000
   0.00000000  0.49740000  0.00000000
Direct configuration=     6
   0.66967925  0.46698871  0.23850677
   0.32859461  0.59981451  0.73843040
   0.84518513  0.96590130  0.72680396
   0.19053959  0.10262709  0.18518448
   0.59713039  0.39450865  0.04696107
   0.74247561  0.28797519  0.15139361
   0.78583338  0.37115103  0.31018098
   0.55429724  0.54942458  0.15479225
   0.67492839  0.54814817  0.33569003
   0.25720495  0.53277080  0.53438023
   0.40157657  0.42502277  0.65318525
   0.44318998  0.50928689  0.82353292
   0.21992584  0.68390538  0.63783215
   0.32544493  0.68564768  0.83190457
   0.71378927  0.89734125  0.70300090
   0.85081535  0.78664591  0.57235516
   0.95065413  0.86926971  0.61757926
   0.73022597  0.04877140  0.82549661
   0.88806106  0.04804194  0.78581018
   0.12042701  0.03539956  0.38342865
   0.11678835  0.92338581  0.10293563
   0.18777885  0.01156746  0.96497319
   0.19159836  0.18909316  0.40805083
   0.24025181  0.18526711  0.14623438
   0.58910000  0.23970000  0.79700000
   0.41090000  0.76030000  0.29700000
   0.91090000  0.73970000  0.29700000
   0.08910000  0.26030000  0.79700000
   0.33402000  0.99870000  0.75710000
   0.66598000  0.00130000  0.25710000
   0.16598000  0.49870000  0.25710000
   0.83402000  0.50130000  0.75710000
   0.41170000  0.24010000  0.20500000
   0.58830000  0.75990000  0.70500000
   0.08830000  0.74010000  0.70500000
   0.91170000  0.25990000  0.20500000
   0.73223132  0.36939152  0.23429938
   0.60241933  0.47050529  0.13604818
   0.39529709  0.50284567  0.73879404
   0.26826280  0.60625723  0.62971152
   0.88281263  0.87071191  0.63184808
   0.75804442  0.96892340  0.75235986
   0.16358419  0.00471367  0.08017489
   0.16745686  0.10453710  0.33482139
   0.50000000  0.00260000  0.00000000
   0.50000000  0.99740000  0.50000000
   0.00000000  0.50260000  0.50000000
   0.00000000  0.49740000  0.00000000
Direct configuration=     7
   0.67005642  0.46671186  0.23849431
   0.32841879  0.60041022  0.73866763
   0.84495225  0.96552584  0.72659491
   0.19081109  0.10285836  0.18508019
   0.59698053  0.39425192  0.04633722
   0.74313927  0.28672013  0.15029766
   0.78687841  0.37067978  0.31064993
   0.55480708  0.54882597  0.15449904
   0.67513461  0.54725967  0.33502944
   0.25673405  0.53366501  0.53524744
   0.40145757  0.42488856  0.65307415
   0.44276614  0.50968193  0.82333145
   0.21827702  0.68517393  0.63861074
   0.32546261  0.68602987  0.83224826
   0.71291929  0.89644619  0.70228787
   0.85093469  0.78566087  0.57138427
   0.95109770  0.86921815  0.61736000
   0.73022997  0.04825932  0.82517706
   0.88748442  0.04723959  0.78528701
   0.12042541  0.03559606  0.38339156
   0.11690437  0.92358208  0.10272178
   0.18785360  0.01152741  0.96476901
   0.19164596  0.18900469  0.40814406
   0.24071656  0.18578455  0.14607529
   0.58910000  0.23970000  0.79700000
   0.41090000  0.76030000  0.29700000
   0.91090000  0.73970000  0.29700000
   0.08910000  0.26030000  0.79700000
   0.33402000  0.99870000  0.75710000
   0.66598000  0.00130000  0.25710000
   0.16598000  0.49870000  0.25710000
   0.83402000  0.50130000  0.75710000
   0.41170000  0.24010000  0.20500000
   0.58830000  0.75990000  0.70500000
   0.08830000  0.74010000  0.70500000
   0.91170000  0.25990000  0.20500000
   0.73377632  0.36887042  0.23348382
   0.60274877  0.46978034  0.13705047
   0.39513093  0.50386261  0.73828709
   0.26699748  0.60577049  0.62992892
   0.88302949  0.86987123  0.63124240
   0.75802853  0.96883337  0.75273995
   0.16338407  0.00495250  0.07924485
   0.16742729  0.10525053  0.33555091
   0.50000000  0.00260000  0.00000000
   0.50000000  0.99740000  0.50000000
   0.00000000  0.50260000  0.50000000
   0.00000000  0.49740000  0.00000000
Direct configuration=     8
   0.66842204  0.46869052  0.23893512
   0.32929176  0.59977442  0.73916273
   0.84508643  0.96727710  0.72776421
   0.19095100  0.10289989  0.18442536
   0.59712242  0.39407474  0.04662355
   0.74113086  0.28897794  0.15171949
   0.78461355  0.37232858  0.31066555
   0.55301536  0.55075964  0.15486818
   0.67426528  0.55021707  0.33695279
   0.25830044  0.53186573  0.53388791
   0.40195265  0.42395222  0.65213510
   0.44430622  0.50858095  0.82466257
   0.22127887  0.68394457  0.63702598
   0.32554102  0.68529425  0.83198256
   0.71439318  0.89728197  0.70299793
   0.85010628  0.78754334  0.57343657
   0.95079419  0.86956832  0.61792552
   0.73025560  0.04964103  0.82603082
   0.88914351  0.04985747  0.78708771
   0.12012588  0.03448901  0.38372007
   0.11646575  0.92274279  0.10343869
   0.18767167  0.01165773  0.96535486
   0.19144869  0.18891574  0.40750751
   0.23976421  0.18504621  0.14624805
   0.58910000  0.23970000  0.79700000
   0.41090000  0.76030000  0.29700000
   0.91090000  0.73970000  0.29700000
   0.08910000  0.26030000  0.79700000
   0.33402000  0.99870000  0.75710000
   0.66598000  0.00130000  0.25710000
   0.16598000  0.49870000  0.25710000
   0.83402000  0.50130000  0.75710000
   0.41170000  0.24010000  0.20500000
   0.58830000  0.75990000  0.70500000
   0.08830000  0.74010000  0.70500000
   0.91170000  0.25990000  0.20500000
   0.73172409  0.36811495  0.23573694
   0.60174177  0.47296202  0.13565273
   0.39590280  0.50113831  0.74037013
   0.26939479  0.60487094  0.62608558
   0.88315437  0.87083821  0.63154219
   0.75813972  0.97103870  0.75361643
   0.16345649  0.00308101  0.07966353
   0.16732218  0.10448488  0.33680710
   0.50000000  0.00260000  0.00000000
   0.50000000  0.99740000  0.50000000
   0.00000000  0.50260000  0.50000000
   0.00000000  0.49740000  0.00000000
Direct configuration=     9
   0.66700456  0.47040660  0.23931743
   0.33004888  0.59922300  0.73959213
   0.84520280  0.96879596  0.72877833
   0.19107234  0.10293591  0.18385743
   0.59724548  0.39392108  0.04687187
   0.73938898  0.29093611  0.15295262
   0.78264926  0.37375857  0.31067909
   0.55146142  0.55243669  0.15518833
   0.67351131  0.55278199  0.33862090
   0.25965896  0.53030523  0.53270879
   0.40238204  0.42314015  0.65132066
   0.44564192  0.50762608  0.82581705
   0.22388235  0.68287835  0.63565153
   0.32560903  0.68465626  0.83175213
   0.71567148  0.89800684  0.70361376
   0.84938782  0.78917598  0.57521651
   0.95053096  0.86987201  0.61841599
   0.73027784  0.05083938  0.82677127
   0.89058242  0.05212794  0.78864944
   0.11986610  0.03352887  0.38400497
   0.11608535  0.92201488  0.10406046
   0.18751388  0.01177076  0.96586296
   0.19127760  0.18883859  0.40695543
   0.23893825  0.18440586  0.14639788
   0.58910000  0.23970000  0.79700000
   0.41090000  0.76030000  0.29700000
   0.91090000  0.73970000  0.29700000
   0.08910000  0.26030000  0.79700000
   0.33402000  0.99870000  0.75710000
   0.66598000  0.00130000  0.25710000
   0.16598000  0.49870000  0.25710000
   0.83402000  0.50130000  0.75710000
   0.41170000  0.24010000  0.20500000
   0.58830000  0.75990000  0.70500000
   0.08830000  0.74010000  0.70500000
   0.91170000  0.25990000  0.20500000
   0.72994422  0.36745975  0.23769105
   0.60086841  0.47572146  0.13444048
   0.39657224  0.49877554  0.74217673
   0.27147395  0.60409077  0.62275229
   0.88326267  0.87167687  0.63180220
   0.75823615  0.97295136  0.75437659
   0.16351929  0.00145789  0.08002665
   0.16723102  0.10382084  0.33789658
   0.50000000  0.00260000  0.00000000
   0.50000000  0.99740000  0.50000000
   0.00000000  0.50260000  0.50000000
   0.00000000  0.49740000  0.00000000
Direct configuration=    10
   0.66616055  0.47178301  0.24003407
   0.33080470  0.59816995  0.73925354
   0.84569320  0.97022924  0.72963735
   0.19068919  0.10208615  0.18443883
   0.59719432  0.39400201  0.04700848
   0.73819044  0.29154334  0.15298370
   0.78171848  0.37482640  0.31141903
   0.55030267  0.55358261  0.15521437
   0.67285744  0.55431944  0.33931623
   0.26067182  0.52903625  0.53172132
   0.40276699  0.42254250  0.65087575
   0.44657630  0.50685052  0.82658349
   0.22519474  0.68276672  0.63464677
   0.32566486  0.68438436  0.83182395
   0.71626154  0.89812316  0.70377145
   0.84872585  0.78992877  0.57617514
   0.95072238  0.87010099  0.61870274
   0.73022250  0.05185559  0.82744997
   0.89130852  0.05330727  0.78945889
   0.11965563  0.03279637  0.38426599
   0.11578772  0.92140468  0.10452672
   0.18737367  0.01173596  0.96610771
   0.19115506  0.18887602  0.40674544
   0.23871042  0.18459265  0.14617367
   0.58910000  0.23970000  0.79700000
   0.41090000  0.76030000  0.29700000
   0.91090000  0.73970000  0.29700000
   0.08910000  0.26030000  0.79700000
   0.33402000  0.99870000  0.75710000
   0.66598000  0.00130000  0.25710000
   0.16598000  0.49870000  0.25710000
   0.83402000  0.50130000  0.75710000
   0.41170000  0.24010000  0.20500000
   0.58830000  0.75990000  0.70500000
   0.08830000  0.74010000  0.70500000
   0.91170000  0.25990000  0.20500000
   0.72836391  0.36768112  0.23913608
   0.60042164  0.47762403  0.13388596
   0.39682176  0.49747428  0.74350305
   0.27309318  0.60345777  0.62096118
   0.88311742  0.87268597  0.63237650
   0.75855258  0.97455389  0.75515009
   0.16363929  0.00059839  0.08014437
   0.16727968  0.10345277  0.33800389
   0.50000000  0.00260000  0.00000000
   0.50000000  0.99740000  0.50000000
   0.00000000  0.50260000  0.50000000
   0.00000000  0.49740000  0.00000000
Direct configuration=    11
   0.66362853  0.47591224  0.24218401
   0.33307216  0.59501081  0.73823777
   0.84716440  0.97452909  0.73221438
   0.18953974  0.09953687  0.18618302
   0.59704084  0.39424478  0.04741832
   0.73459480  0.29336504  0.15307694
   0.77892615  0.37802988  0.31363886
   0.54682643  0.55702036  0.15529248
   0.67089582  0.55893179  0.34140220
   0.26371040  0.52522931  0.52875889
   0.40392185  0.42074955  0.64954101
   0.44937945  0.50452381  0.82888283
   0.22913193  0.68243183  0.63163247
   0.32583234  0.68356866  0.83203939
   0.71803172  0.89847211  0.70424450
   0.84673997  0.79218713  0.57905101
   0.95129666  0.87078792  0.61956299
   0.73005648  0.05490424  0.82948609
   0.89348679  0.05684527  0.79188724
   0.11902424  0.03059885  0.38504906
   0.11489486  0.91957407  0.10592551
   0.18695305  0.01163155  0.96684197
   0.19078747  0.18898831  0.40611549
   0.23802693  0.18515299  0.14550107
   0.58910000  0.23970000  0.79700000
   0.41090000  0.76030000  0.29700000
   0.91090000  0.73970000  0.29700000
   0.08910000  0.26030000  0.79700000
   0.33402000  0.99870000  0.75710000
   0.66598000  0.00130000  0.25710000
   0.16598000  0.49870000  0.25710000
   0.83402000  0.50130000  0.75710000
   0.41170000  0.24010000  0.20500000
   0.58830000  0.75990000  0.70500000
   0.08830000  0.74010000  0.70500000
   0.91170000  0.25990000  0.20500000
   0.72362296  0.36834522  0.24347117
   0.59908134  0.48333174  0.13222240
   0.39757033  0.49357049  0.74748202
   0.27795086  0.60155879  0.61558784
   0.88268166  0.87571328  0.63409939
   0.75950185  0.97936151  0.75747058
   0.16399928 -0.00198013  0.08049753
   0.16742568  0.10234854  0.33832583
   0.50000000  0.00260000  0.00000000
   0.50000000  0.99740000  0.50000000
   0.00000000  0.50260000  0.50000000
   0.00000000  0.49740000  0.00000000
Direct configuration=    12
   0.66267866  0.47764358  0.24303050
   0.33375121  0.59431746  0.73787533
   0.84778830  0.97640177  0.73332557
   0.18952048  0.09887019  0.18627104
   0.59671854  0.39544291  0.04814722
   0.73334416  0.29376315  0.15300467
   0.77829211  0.37897228  0.31480147
   0.54588992  0.55766795  0.15485032
   0.67003868  0.56001284  0.34131508
   0.26480930  0.52377592  0.52761471
   0.40447059  0.42073103  0.65038462
   0.44991542  0.50353886  0.82905480
   0.23010771  0.68231954  0.63028320
   0.32597811  0.68281899  0.83160190
   0.71858272  0.89905388  0.70473365
   0.84609611  0.79292516  0.57993462
   0.95143279  0.87099857  0.61984943
   0.72984383  0.05637094  0.83059196
   0.89378881  0.05739819  0.79223023
   0.11914895  0.03035869  0.38520402
   0.11482163  0.91912798  0.10610394
   0.18680321  0.01142066  0.96667149
   0.19064429  0.18912294  0.40614071
   0.23773598  0.18522316  0.14533352
   0.58910000  0.23970000  0.79700000
   0.41090000  0.76030000  0.29700000
   0.91090000  0.73970000  0.29700000
   0.08910000  0.26030000  0.79700000
   0.33402000  0.99870000  0.75710000
   0.66598000  0.00130000  0.25710000
   0.16598000  0.49870000  0.25710000
   0.83402000  0.50130000  0.75710000
   0.41170000  0.24010000  0.20500000
   0.58830000  0.75990000  0.70500000
   0.08830000  0.74010000  0.70500000
   0.91170000  0.25990000  0.20500000
   0.72243479  0.36864791  0.24462429
   0.59887838  0.48475133  0.13205819
   0.39816481  0.49160183  0.74814194
   0.27906099  0.60193917  0.61507987
   0.88274646  0.87682509  0.63476096
   0.76006049  0.97998453  0.75759558
   0.16377323 -0.00288023  0.08126712
   0.16697541  0.10136158  0.33878484
   0.50000000  0.00260000  0.00000000
   0.50000000  0.99740000  0.50000000
   0.00000000  0.50260000  0.50000000
   0.00000000  0.49740000  0.00000000
Direct configuration=    13
   0.66162789  0.47955884  0.24396691
   0.33450238  0.59355047  0.73747438
   0.84847848  0.97847338  0.73455478
   0.18949918  0.09813269  0.18636841
   0.59636201  0.39676831  0.04895354
   0.73196067  0.29420356  0.15292472
   0.77759071  0.38001479  0.31608756
   0.54485393  0.55838432  0.15436119
   0.66909049  0.56120873  0.34121871
   0.26602492  0.52216814  0.52634899
   0.40507761  0.42071055  0.65131785
   0.45050832  0.50244928  0.82924503
   0.23118714  0.68219531  0.62879060
   0.32613937  0.68198969  0.83111794
   0.71919225  0.89969746  0.70527476
   0.84538385  0.79374159  0.58091209
   0.95158337  0.87123159  0.62016629
   0.72960859  0.05799345  0.83181531
   0.89412292  0.05800984  0.79260966
   0.11928691  0.03009303  0.38537545
   0.11474063  0.91863451  0.10630132
   0.18663745  0.01118736  0.96648289
   0.19048591  0.18927186  0.40616860
   0.23741412  0.18530078  0.14514817
   0.58910000  0.23970000  0.79700000
   0.41090000  0.76030000  0.29700000
   0.91090000  0.73970000  0.29700000
   0.08910000  0.26030000  0.79700000
   0.33402000  0.99870000  0.75710000
   0.66598000  0.00130000  0.25710000
   0.16598000  0.49870000  0.25710000
   0.83402000  0.50130000  0.75710000
   0.41170000  0.24010000  0.20500000
   0.58830000  0.75990000  0.70500000
   0.08830000  0.74010000  0.70500000
   0.91170000  0.25990000  0.20500000
   0.72112040  0.36898277  0.24589991
   0.59865385  0.48632170  0.13187653
   0.39882243  0.48942406  0.74887196
   0.28028905  0.60235996  0.61451795
   0.88281814  0.87805501  0.63549281
   0.76067846  0.98067374  0.75773386
   0.16352318 -0.00387594  0.08211846
   0.16647731  0.10026978  0.33929261
   0.50000000  0.00260000  0.00000000
   0.50000000  0.99740000  0.50000000
   0.00000000  0.50260000  0.50000000
   0.00000000  0.49740000  0.00000000
Direct configuration=    14
   0.66090787  0.48047540  0.24441270
   0.33559896  0.59274329  0.73756523
   0.84891923  0.97956208  0.73492779
   0.18962084  0.09757482  0.18677042
   0.59576080  0.39906673  0.05022333
   0.73039450  0.29496678  0.15338155
   0.77676904  0.38084183  0.31732005
   0.54413407  0.55852105  0.15332299
   0.66789564  0.56257794  0.34096360
   0.26754635  0.52138471  0.52590321
   0.40602074  0.42041722  0.65262005
   0.45087784  0.50105265  0.82902152
   0.23190401  0.68228835  0.62697090
   0.32649456  0.68060402  0.83016855
   0.71984327  0.90074003  0.70608064
   0.84489082  0.79517723  0.58225629
   0.95156433  0.87146112  0.62050858
   0.72962421  0.05903102  0.83244037
   0.89443487  0.05882334  0.79310701
   0.11925723  0.02953962  0.38592225
   0.11462151  0.91787101  0.10643751
   0.18625605  0.01057671  0.96673671
   0.19008725  0.18886920  0.40607590
   0.23693509  0.18505377  0.14512044
   0.58910000  0.23970000  0.79700000
   0.41090000  0.76030000  0.29700000
   0.91090000  0.73970000  0.29700000
   0.08910000  0.26030000  0.79700000
   0.33402000  0.99870000  0.75710000
   0.66598000  0.00130000  0.25710000
   0.16598000  0.49870000  0.25710000
   0.83402000  0.50130000  0.75710000
   0.41170000  0.24010000  0.20500000
   0.58830000  0.75990000  0.70500000
   0.08830000  0.74010000  0.70500000
   0.91170000  0.25990000  0.20500000
   0.72026015  0.36979882  0.24706932
   0.59822000  0.48809226  0.13217737
   0.39913321  0.48796051  0.74957312
   0.28100473  0.60222739  0.61363160
   0.88310888  0.87925629  0.63621289
   0.76101439  0.98208471  0.75881802
   0.16343875 -0.00444953  0.08220404
   0.16638131  0.10012895  0.33954680
   0.50000000  0.00260000  0.00000000
   0.50000000  0.99740000  0.50000000
   0.00000000  0.50260000  0.50000000
   0.00000000  0.49740000  0.00000000
Direct configuration=    15
   0.65899936  0.48290488  0.24559432
   0.33850561  0.59060374  0.73780603
   0.85008752  0.98244784  0.73591649
   0.18994333  0.09609610  0.18783600
   0.59416719  0.40515909  0.05358912
   0.72624314  0.29698981  0.15459242
   0.77459107  0.38303403  0.32058696
   0.54222598  0.55888349  0.15057109
   0.66472849  0.56620726  0.34028739
   0.27157915  0.51930813  0.52472159
   0.40852065  0.41963971  0.65607173
   0.45185730  0.49735067  0.82842907
   0.23380419  0.68253496  0.62214750
   0.32743605  0.67693108  0.82765202
   0.72156891  0.90350355  0.70821673
   0.84358395  0.79898261  0.58581930
   0.95151386  0.87206951  0.62141587
   0.72966559  0.06178125  0.83409718
   0.89526176  0.06097965  0.79442531
   0.11917856  0.02807271  0.38737164
   0.11430578  0.91584723  0.10679849
   0.18524508  0.00895807  0.96740948
   0.18903056  0.18780190  0.40583016
   0.23566534  0.18439904  0.14504694
   0.58910000  0.23970000  0.79700000
   0.41090000  0.76030000  0.29700000
   0.91090000  0.73970000  0.29700000
   0.08910000  0.26030000  0.79700000
   0.33402000  0.99870000  0.75710000
   0.66598000  0.00130000  0.25710000
   0.16598000  0.49870000  0.25710000
   0.83402000  0.50130000  0.75710000
   0.41170000  0.24010000  0.20500000
   0.58830000  0.75990000  0.70500000
   0.08830000  0.74010000  0.70500000
   0.91170000  0.25990000  0.20500000
   0.71797994  0.37196191  0.25016904
   0.59706999  0.49278541  0.13297481
   0.39995699  0.48408113  0.75143164
   0.28290175  0.60187599  0.61128219
   0.88387953  0.88244047  0.63812159
   0.76190481  0.98582472  0.76169175
   0.16321497 -0.00596993  0.08243086
   0.16612683  0.09975567  0.34022056
   0.50000000  0.00260000  0.00000000
   0.50000000  0.99740000  0.50000000
   0.00000000  0.50260000  0.50000000
   0.00000000  0.49740000  0.00000000
Direct configuration=    16
   0.65849574  0.48357613  0.24604102
   0.33883240  0.58997776  0.73671191
   0.85012536  0.98334903  0.73633957
   0.18989393  0.09542965  0.18804632
   0.59353894  0.40708966  0.05440735
   0.72482994  0.29795149  0.15557804
   0.77378377  0.38362840  0.32157547
   0.54146567  0.55928785  0.14971330
   0.66360726  0.56758278  0.34019095
   0.27301194  0.51902703  0.52463795
   0.40953853  0.41862204  0.65649283
   0.45228877  0.49603251  0.82845254
   0.23434583  0.68263722  0.62045344
   0.32788566  0.67586498  0.82712849
   0.72215208  0.90470248  0.70912944
   0.84338262  0.80065524  0.58721634
   0.95163827  0.87227986  0.62170469
   0.72979123  0.06263814  0.83455163
   0.89562121  0.06194333  0.79499237
   0.11918760  0.02760372  0.38790511
   0.11425308  0.91516066  0.10689067
   0.18487237  0.00830253  0.96760337
   0.18867756  0.18758075  0.40597684
   0.23526417  0.18413348  0.14506391
   0.58910000  0.23970000  0.79700000
   0.41090000  0.76030000  0.29700000
   0.91090000  0.73970000  0.29700000
   0.08910000  0.26030000  0.79700000
   0.33402000  0.99870000  0.75710000
   0.66598000  0.00130000  0.25710000
   0.16598000  0.49870000  0.25710000
   0.83402000  0.50130000  0.75710000
   0.41170000  0.24010000  0.20500000
   0.58830000  0.75990000  0.70500000
   0.08830000  0.74010000  0.70500000
   0.91170000  0.25990000  0.20500000
   0.71738382  0.37269522  0.25077351
   0.59679550  0.49421784  0.13334611
   0.40004172  0.48343454  0.75252014
   0.28387709  0.60122997  0.61122829
   0.88387183  0.88303525  0.63841341
   0.76224737  0.98694657  0.76264506
   0.16316007 -0.00627831  0.08273088
   0.16602641  0.09945164  0.34016674
   0.50000000  0.00260000  0.00000000
   0.50000000  0.99740000  0.50000000
   0.00000000  0.50260000  0.50000000
   0.00000000  0.49740000  0.00000000
Direct configuration=    17
   0.65729666  0.48517436  0.24710460
   0.33961049  0.58848733  0.73410686
   0.85021548  0.98549470  0.73734689