  24  24   0   0
  0.2060980E+02  0.8882100E-09  0.8882100E-09  0.6269800E-09  0.5000000E-15
   1.0000000000000000E-004
  CAR 
 tetra-FASnI3                            
     10.24499083    -21.75888862  301      2.46404764      1.00000000
    -21.759  0.0000E+00  0.0000E+00
    -21.652  0.0000E+00  0.0000E+00
    -21.546  0.0000E+00  0.0000E+00
    -21.439  0.0000E+00  0.0000E+00
    -21.332  0.0000E+00  0.0000E+00
    -21.225  0.0000E+00  0.0000E+00
    -21.119  0.0000E+00  0.0000E+00
    -21.012  0.0000E+00  0.0000E+00
    -20.905  0.0000E+00  0.0000E+00
    -20.799  0.0000E+00  0.0000E+00
    -20.692  0.0000E+00  0.0000E+00
    -20.585  0.1570E-16  0.1675E-17
    -20.479  0.7488E-08  0.7988E-09
    -20.372  0.6286E-03  0.6706E-04
    -20.265  0.2875E-01  0.3134E-02
    -20.159  0.8110E-02  0.4000E-02
    -20.052  0.3895E-05  0.4000E-02
    -19.945  0.4686E-12  0.4000E-02
    -19.839  0.0000E+00  0.4000E-02
    -19.732  0.0000E+00  0.4000E-02
    -19.625  0.0000E+00  0.4000E-02
    -19.519  0.0000E+00  0.4000E-02
    -19.412  0.0000E+00  0.4000E-02
    -19.305  0.0000E+00  0.4000E-02
    -19.199  0.0000E+00  0.4000E-02
    -19.092  0.0000E+00  0.4000E-02
    -18.985  0.0000E+00  0.4000E-02
    -18.879  0.0000E+00  0.4000E-02
    -18.772  0.0000E+00  0.4000E-02
    -18.665  0.0000E+00  0.4000E-02
    -18.559  0.0000E+00  0.4000E-02
    -18.452  0.0000E+00  0.4000E-02
    -18.345  0.0000E+00  0.4000E-02
    -18.238  0.1041E-17  0.4000E-02
    -18.132  0.1494E-08  0.4000E-02
    -18.025  0.2842E-03  0.4030E-02
    -17.918  0.2514E-01  0.6712E-02
    -17.812  0.1206E-01  0.7998E-02
    -17.705  0.1432E-04  0.8000E-02
    -17.598  0.4895E-11  0.8000E-02
    -17.492  0.0000E+00  0.8000E-02
    -17.385  0.0000E+00  0.8000E-02
    -17.278  0.0000E+00  0.8000E-02
    -17.172  0.0000E+00  0.8000E-02
    -17.065  0.0000E+00  0.8000E-02
    -16.958  0.0000E+00  0.8000E-02
    -16.852  0.0000E+00  0.8000E-02
    -16.745  0.0000E+00  0.8000E-02
    -16.638  0.0000E+00  0.8000E-02
    -16.532  0.0000E+00  0.8000E-02
    -16.425  0.0000E+00  0.8000E-02
    -16.318  0.0000E+00  0.8000E-02
    -16.212  0.0000E+00  0.8000E-02
    -16.105  0.0000E+00  0.8000E-02
    -15.998  0.0000E+00  0.8000E-02
    -15.892  0.0000E+00  0.8000E-02
    -15.785  0.0000E+00  0.8000E-02
    -15.678  0.0000E+00  0.8000E-02
    -15.571  0.0000E+00  0.8000E-02
    -15.465  0.0000E+00  0.8000E-02
    -15.358  0.0000E+00  0.8000E-02
    -15.251  0.0000E+00  0.8000E-02
    -15.145  0.0000E+00  0.8000E-02
    -15.038  0.0000E+00  0.8000E-02
    -14.931  0.0000E+00  0.8000E-02
    -14.825  0.0000E+00  0.8000E-02
    -14.718  0.0000E+00  0.8000E-02
    -14.611  0.0000E+00  0.8000E-02
    -14.505  0.0000E+00  0.8000E-02
    -14.398  0.0000E+00  0.8000E-02
    -14.291  0.0000E+00  0.8000E-02
    -14.185  0.0000E+00  0.8000E-02
    -14.078  0.0000E+00  0.8000E-02
    -13.971  0.0000E+00  0.8000E-02
    -13.865  0.0000E+00  0.8000E-02
    -13.758  0.0000E+00  0.8000E-02
    -13.651  0.0000E+00  0.8000E-02
    -13.545  0.0000E+00  0.8000E-02
    -13.438  0.0000E+00  0.8000E-02
    -13.331  0.0000E+00  0.8000E-02
    -13.225  0.0000E+00  0.8000E-02
    -13.118  0.0000E+00  0.8000E-02
    -13.011  0.0000E+00  0.8000E-02
    -12.904  0.0000E+00  0.8000E-02
    -12.798  0.0000E+00  0.8000E-02
    -12.691  0.0000E+00  0.8000E-02
    -12.584  0.0000E+00  0.8000E-02
    -12.478  0.0000E+00  0.8000E-02
    -12.371  0.0000E+00  0.8000E-02
    -12.264  0.0000E+00  0.8000E-02
    -12.158  0.0000E+00  0.8000E-02
    -12.051  0.0000E+00  0.8000E-02
    -11.944  0.0000E+00  0.8000E-02
    -11.838  0.3084E-13  0.8000E-02
    -11.731  0.3118E-06  0.8000E-02
    -11.624  0.1254E-02  0.8134E-02
    -11.518  0.2318E-01  0.1061E-01
    -11.411  0.1299E-01  0.1199E-01
    -11.304  0.7201E-04  0.1200E-01
    -11.198  0.1147E-02  0.1212E-01
    -11.091  0.1027E-01  0.1322E-01
    -10.984  0.1492E-01  0.1481E-01
    -10.878  0.1296E-01  0.1619E-01
    -10.771  0.2504E-01  0.1886E-01
    -10.664  0.3437E-01  0.2253E-01
    -10.558  0.1348E-01  0.2397E-01
    -10.451  0.3017E-03  0.2400E-01
    -10.344  0.2058E-07  0.2400E-01
    -10.237  0.3396E-15  0.2400E-01
    -10.131  0.0000E+00  0.2400E-01
    -10.024  0.0000E+00  0.2400E-01
     -9.917  0.0000E+00  0.2400E-01
     -9.811  0.0000E+00  0.2400E-01
     -9.704  0.0000E+00  0.2400E-01
     -9.597  0.1575E-10  0.2400E-01
     -9.491  0.1653E-04  0.2400E-01
     -9.384  0.9391E-02  0.2500E-01
     -9.277  0.2714E-01  0.2790E-01
     -9.171  0.9450E-03  0.2800E-01
     -9.064  0.2860E-07  0.2800E-01
     -8.957  0.1701E-15  0.2800E-01
     -8.851  0.7612E-10  0.2800E-01
     -8.744  0.5892E-04  0.2801E-01
     -8.637  0.1667E-01  0.2979E-01
     -8.531  0.2061E-01  0.3198E-01
     -8.424  0.1562E-03  0.3200E-01
     -8.317  0.6931E-09  0.3200E-01
     -8.211  0.4625E-18  0.3200E-01
     -8.104  0.0000E+00  0.3200E-01
     -7.997  0.0000E+00  0.3200E-01
     -7.891  0.0000E+00  0.3200E-01
     -7.784  0.0000E+00  0.3200E-01
     -7.677  0.0000E+00  0.3200E-01
     -7.571  0.0000E+00  0.3200E-01
     -7.464  0.0000E+00  0.3200E-01
     -7.357  0.0000E+00  0.3200E-01
     -7.250  0.0000E+00  0.3200E-01
     -7.144  0.7285E-17  0.3200E-01
     -7.037  0.4358E-08  0.3200E-01
     -6.930  0.4643E-03  0.3205E-01
     -6.824  0.2694E-01  0.3492E-01
     -6.717  0.1008E-01  0.3600E-01
     -6.610  0.9668E-05  0.3600E-01
     -6.504  0.7045E-11  0.3600E-01
     -6.397  0.2093E-05  0.3600E-01
     -6.290  0.3328E-03  0.3604E-01
     -6.184  0.1857E-03  0.3606E-01
     -6.077  0.3174E-03  0.3609E-01
     -5.970  0.2560E-02  0.3636E-01
     -5.864  0.1269E-02  0.3650E-01
     -5.757  0.2464E-02  0.3676E-01
     -5.650  0.2840E-02  0.3706E-01
     -5.544  0.4326E-02  0.3753E-01
     -5.437  0.3143E-02  0.3786E-01
     -5.330  0.9807E-02  0.3891E-01
     -5.224  0.3003E-01  0.4211E-01
     -5.117  0.7091E-02  0.4287E-01
     -5.010  0.4452E-02  0.4334E-01
     -4.904  0.4412E-03  0.4339E-01
     -4.797  0.2893E-02  0.4370E-01
     -4.690  0.3311E-01  0.4723E-01
     -4.583  0.6478E-02  0.4792E-01
     -4.477  0.2200E-03  0.4794E-01
     -4.370  0.1417E-07  0.4794E-01
     -4.263  0.1599E-10  0.4794E-01
     -4.157  0.4300E-05  0.4794E-01
     -4.050  0.3771E-03  0.4799E-01
     -3.943  0.1393E-03  0.4800E-01
     -3.837  0.7171E-07  0.4800E-01
     -3.730  0.7389E-14  0.4800E-01
     -3.623  0.0000E+00  0.4800E-01
     -3.517  0.0000E+00  0.4800E-01
     -3.410  0.0000E+00  0.4800E-01
     -3.303  0.0000E+00  0.4800E-01
     -3.197  0.0000E+00  0.4800E-01
     -3.090  0.0000E+00  0.4800E-01
     -2.983  0.0000E+00  0.4800E-01
     -2.877  0.0000E+00  0.4800E-01
     -2.770  0.1735E-18  0.4800E-01
     -2.663  0.1120E-09  0.4800E-01
     -2.557  0.1120E-04  0.4800E-01
     -2.450  0.1312E-02  0.4814E-01
     -2.343  0.6908E-02  0.4888E-01
     -2.237  0.9405E-02  0.4988E-01
     -2.130  0.3858E-02  0.5029E-01
     -2.023  0.3247E-02  0.5064E-01
     -1.916  0.6359E-02  0.5132E-01
     -1.810  0.8993E-02  0.5228E-01
     -1.703  0.4568E-02  0.5276E-01
     -1.596  0.3485E-02  0.5314E-01
     -1.490  0.1630E-01  0.5488E-01
     -1.383  0.2313E-01  0.5734E-01
     -1.276  0.1150E-01  0.5857E-01
     -1.170  0.5220E-02  0.5913E-01
     -1.063  0.6484E-02  0.5982E-01
     -0.956  0.1321E-01  0.6123E-01
     -0.850  0.1607E-01  0.6294E-01
     -0.743  0.9946E-02  0.6400E-01
     -0.636  0.9761E-02  0.6504E-01
     -0.530  0.1323E-01  0.6646E-01
     -0.423  0.1224E-01  0.6776E-01
     -0.316  0.1922E-01  0.6981E-01
     -0.210  0.1770E-01  0.7170E-01
     -0.103  0.2575E-01  0.7445E-01
      0.004  0.2401E-01  0.7701E-01
      0.110  0.2315E-01  0.7948E-01
      0.217  0.2406E-01  0.8204E-01
      0.324  0.1283E-01  0.8341E-01
      0.430  0.1366E-01  0.8487E-01
      0.537  0.6129E-02  0.8552E-01
      0.644  0.6104E-02  0.8618E-01
      0.751  0.2667E-02  0.8646E-01
      0.857  0.5544E-02  0.8705E-01
      0.964  0.6406E-03  0.8712E-01
      1.071  0.1789E-02  0.8731E-01
      1.177  0.2299E-03  0.8734E-01
      1.284  0.1557E-02  0.8750E-01
      1.391  0.7220E-03  0.8758E-01
      1.497  0.2325E-02  0.8783E-01
      1.604  0.1098E-02  0.8794E-01
      1.711  0.5360E-05  0.8794E-01
      1.817  0.1182E-10  0.8794E-01
      1.924  0.9932E-14  0.8794E-01
      2.031  0.8487E-07  0.8794E-01
      2.137  0.1469E-03  0.8796E-01
      2.244  0.3700E-03  0.8800E-01
      2.351  0.3814E-05  0.8800E-01
      2.457  0.1252E-10  0.8800E-01
      2.564  0.1391E-13  0.8800E-01
      2.671  0.1028E-06  0.8800E-01
      2.777  0.1646E-03  0.8802E-01
      2.884  0.9460E-03  0.8812E-01
      2.991  0.6704E-03  0.8819E-01
      3.097  0.4356E-02  0.8865E-01
      3.204  0.3402E-02  0.8902E-01
      3.311  0.3408E-02  0.8938E-01
      3.417  0.5809E-02  0.9000E-01
      3.524  0.2080E-02  0.9022E-01
      3.631  0.1033E-02  0.9033E-01
      3.738  0.6663E-05  0.9033E-01
      3.844  0.1064E-02  0.9045E-01
      3.951  0.1502E-02  0.9061E-01
      4.058  0.3542E-02  0.9099E-01
      4.164  0.3113E-02  0.9132E-01
      4.271  0.8065E-02  0.9218E-01
      4.378  0.5183E-02  0.9273E-01
      4.484  0.2364E-02  0.9298E-01
      4.591  0.1727E-02  0.9317E-01
      4.698  0.1193E-01  0.9444E-01
      4.804  0.1800E-01  0.9636E-01
      4.911  0.6815E-02  0.9709E-01
      5.018  0.5304E-02  0.9765E-01
      5.124  0.5089E-02  0.9820E-01
      5.231  0.6380E-02  0.9888E-01
      5.338  0.8970E-03  0.9897E-01
      5.444  0.3733E-03  0.9901E-01
      5.551  0.2653E-02  0.9930E-01
      5.658  0.7064E-02  0.1000E+00
      5.764  0.8708E-02  0.1010E+00
      5.871  0.5913E-02  0.1016E+00
      5.978  0.1123E-02  0.1017E+00
      6.084  0.3126E-02  0.1021E+00
      6.191  0.2032E-02  0.1023E+00
      6.298  0.3039E-02  0.1026E+00
      6.405  0.6343E-02  0.1033E+00
      6.511  0.9964E-02  0.1043E+00
      6.618  0.9688E-02  0.1054E+00
      6.725  0.5835E-02  0.1060E+00
      6.831  0.1055E-01  0.1071E+00
      6.938  0.8850E-02  0.1081E+00
      7.045  0.9718E-02  0.1091E+00
      7.151  0.1023E-01  0.1102E+00
      7.258  0.9476E-02  0.1112E+00
      7.365  0.1305E-01  0.1126E+00
      7.471  0.1264E-01  0.1139E+00
      7.578  0.1339E-01  0.1154E+00
      7.685  0.1146E-01  0.1166E+00
      7.791  0.1374E-01  0.1181E+00
      7.898  0.1480E-01  0.1196E+00
      8.005  0.1387E-01  0.1211E+00
      8.111  0.1227E-01  0.1224E+00
      8.218  0.1187E-01  0.1237E+00
      8.325  0.9159E-02  0.1247E+00
      8.431  0.1101E-01  0.1259E+00
      8.538  0.7168E-02  0.1266E+00
      8.645  0.7908E-02  0.1275E+00
      8.751  0.4018E-02  0.1279E+00
      8.858  0.1037E-02  0.1280E+00
      8.965  0.1514E-04  0.1280E+00
      9.072  0.2064E-09  0.1280E+00
      9.178  0.4625E-18  0.1280E+00
      9.285  0.0000E+00  0.1280E+00
      9.392  0.0000E+00  0.1280E+00
      9.498  0.0000E+00  0.1280E+00
      9.605  0.0000E+00  0.1280E+00
      9.712  0.0000E+00  0.1280E+00
      9.818  0.0000E+00  0.1280E+00
      9.925  0.0000E+00  0.1280E+00
     10.032  0.0000E+00  0.1280E+00
     10.138  0.0000E+00  0.1280E+00
     10.245  0.0000E+00  0.1280E+00
