<?xml version="1.0" encoding="ISO-8859-1"?>
<modeling>
 <generator>
  <i name="program" type="string">vasp </i>
  <i name="version" type="string">6.3.1  </i>
  <i name="subversion" type="string">04May22 (build May 25 2022 13:42:54) complex                          parallel </i>
  <i name="platform" type="string">HPECrayEX_GCC </i>
  <i name="date" type="string">2022 09 13 </i>
  <i name="time" type="string">18:07:16 </i>
 </generator>
 <incar>
  <i type="string" name="SYSTEM">tetra-FASnI3</i>
  <i type="int" name="ISTART">     0</i>
  <i type="string" name="PREC">Accurate</i>
  <i type="string" name="ALGO">ALL</i>
  <i type="int" name="ISPIN">     1</i>
  <i type="int" name="NELM">   200</i>
  <i type="int" name="NELMIN">     8</i>
  <i type="int" name="IBRION">     2</i>
  <i name="EDIFF">      0.00000500</i>
  <i name="EDIFFG">     -0.01000000</i>
  <i type="int" name="NSW">  1000</i>
  <i type="int" name="ISIF">     0</i>
  <i type="int" name="ISYM">     0</i>
  <i name="ENCUT">    700.00000000</i>
  <i type="logical" name="LREAL"> F  </i>
  <i type="int" name="ISMEAR">     0</i>
  <i name="SIGMA">      0.05000000</i>
  <i type="logical" name="LWAVE"> F  </i>
  <i type="logical" name="LCHARG"> F  </i>
  <i type="logical" name="LASPH"> T  </i>
  <i type="string" name="METAGGA">R2SCAN</i>
 </incar>
 <primitive_cell>
  <structure name="primitive_cell" >
   <crystal>
    <varray name="basis" >
     <v>       8.88210000       0.00000000       0.00000000 </v>
     <v>       0.00000000       8.88210000       0.00000000 </v>
     <v>       0.00000000       0.00000000       6.26980000 </v>
    </varray>
    <i name="volume">    494.63518323 </i>
    <varray name="rec_basis" >
     <v>       0.11258599       0.00000000       0.00000000 </v>
     <v>       0.00000000       0.11258599       0.00000000 </v>
     <v>       0.00000000       0.00000000       0.15949472 </v>
    </varray>
   </crystal>
   <varray name="positions" >
    <v>       0.47649372       0.96546986       0.96718085 </v>
    <v>       0.97649372       0.46048546       0.01834169 </v>
    <v>       0.51060727       0.05231799       0.26813926 </v>
    <v>       0.62217999       0.14221497       0.91757696 </v>
    <v>       0.56690027       0.04008199       0.69120017 </v>
    <v>       0.39059061       0.89622441       0.24954096 </v>
    <v>       0.41535953       0.87566886       0.88192826 </v>
    <v>       0.01060727       0.68136268       0.10667866 </v>
    <v>       0.12217999       0.54170845       0.79049591 </v>
    <v>       0.06690027       0.35290697       0.76513896 </v>
    <v>       0.89059061       0.57491657       0.26948097 </v>
    <v>       0.91535953       0.35777668       0.06610284 </v>
    <v>       0.27770000       0.22230000       0.50000000 </v>
    <v>       0.72230000       0.77770000       0.50000000 </v>
    <v>       0.77770000       0.27770000       0.50000000 </v>
    <v>       0.22230000       0.72230000       0.50000000 </v>
    <v>       0.00000000       0.00000000       0.00000000 </v>
    <v>       0.50000000       0.50000000       0.00000000 </v>
    <v>       0.56250941       0.05431909       0.85402249 </v>
    <v>       0.45724151       0.97482215       0.17351646 </v>
    <v>       0.06250941       0.45224215       0.84948904 </v>
    <v>       0.95724151       0.58101753       0.13493429 </v>
    <v>       0.00000000       0.00000000       0.50000000 </v>
    <v>       0.50000000       0.50000000       0.50000000 </v>
   </varray>
  </structure>
  <varray name="primitive_index" >
   <v type="int" >        1 </v>
   <v type="int" >        2 </v>
   <v type="int" >        3 </v>
   <v type="int" >        4 </v>
   <v type="int" >        5 </v>
   <v type="int" >        6 </v>
   <v type="int" >        7 </v>
   <v type="int" >        8 </v>
   <v type="int" >        9 </v>
   <v type="int" >       10 </v>
   <v type="int" >       11 </v>
   <v type="int" >       12 </v>
   <v type="int" >       13 </v>
   <v type="int" >       14 </v>
   <v type="int" >       15 </v>
   <v type="int" >       16 </v>
   <v type="int" >       17 </v>
   <v type="int" >       18 </v>
   <v type="int" >       19 </v>
   <v type="int" >       20 </v>
   <v type="int" >       21 </v>
   <v type="int" >       22 </v>
   <v type="int" >       23 </v>
   <v type="int" >       24 </v>
  </varray>
 </primitive_cell>
 <kpoints>
  <generation param="Gamma">
   <v type="int" name="divisions">       3        3        4 </v>
   <v name="usershift">      0.00000000       0.00000000       0.00000000 </v>
   <v name="genvec1">      0.33333333       0.00000000       0.00000000 </v>
   <v name="genvec2">      0.00000000       0.33333333       0.00000000 </v>
   <v name="genvec3">      0.00000000       0.00000000       0.25000000 </v>
   <v name="shift">      0.00000000       0.00000000       0.00000000 </v>
  </generation>
  <varray name="kpointlist" >
   <v>       0.00000000       0.00000000       0.00000000 </v>
   <v>       0.33333333       0.00000000       0.00000000 </v>
   <v>       0.00000000       0.33333333       0.00000000 </v>
   <v>       0.33333333       0.33333333       0.00000000 </v>
   <v>      -0.33333333       0.33333333       0.00000000 </v>
   <v>       0.00000000       0.00000000       0.25000000 </v>
   <v>       0.33333333       0.00000000       0.25000000 </v>
   <v>       0.00000000       0.33333333       0.25000000 </v>
   <v>      -0.33333333       0.00000000       0.25000000 </v>
   <v>       0.00000000      -0.33333333       0.25000000 </v>
   <v>       0.33333333       0.33333333       0.25000000 </v>
   <v>      -0.33333333       0.33333333       0.25000000 </v>
   <v>      -0.33333333      -0.33333333       0.25000000 </v>
   <v>       0.33333333      -0.33333333       0.25000000 </v>
   <v>       0.00000000       0.00000000       0.50000000 </v>
   <v>       0.33333333       0.00000000       0.50000000 </v>
   <v>       0.00000000       0.33333333       0.50000000 </v>
   <v>       0.33333333       0.33333333       0.50000000 </v>
   <v>      -0.33333333       0.33333333       0.50000000 </v>
  </varray>
  <varray name="weights" >
   <v>       0.02777778 </v>
   <v>       0.05555556 </v>
   <v>       0.05555556 </v>
   <v>       0.05555556 </v>
   <v>       0.05555556 </v>
   <v>       0.05555556 </v>
   <v>       0.05555556 </v>
   <v>       0.05555556 </v>
   <v>       0.05555556 </v>
   <v>       0.05555556 </v>
   <v>       0.05555556 </v>
   <v>       0.05555556 </v>
   <v>       0.05555556 </v>
   <v>       0.05555556 </v>
   <v>       0.02777778 </v>
   <v>       0.05555556 </v>
   <v>       0.05555556 </v>
   <v>       0.05555556 </v>
   <v>       0.05555556 </v>
  </varray>
 </kpoints>
 <parameters>
  <separator name="general" >
   <i type="string" name="SYSTEM">tetra-FASnI3</i>
   <i type="logical" name="LCOMPAT"> F  </i>
  </separator>
  <separator name="electronic" >
   <i type="string" name="PREC">accura</i>
   <i name="ENMAX">    700.00000000</i>
   <i name="ENAUG">    644.87300000</i>
   <i name="EDIFF">      0.00000500</i>
   <i type="int" name="IALGO">    58</i>
   <i type="int" name="IWAVPR">    11</i>
   <i type="int" name="NBANDS">    64</i>
   <i type="int" name="NBANDSLOW">    -1</i>
   <i type="int" name="NBANDSHIGH">    -1</i>
   <i name="NELECT">     88.00000000</i>
   <i type="int" name="TURBO">     0</i>
   <i type="int" name="IRESTART">     0</i>
   <i type="int" name="NREBOOT">     0</i>
   <i type="int" name="NMIN">     0</i>
   <i name="EREF">      0.00000000</i>
   <separator name="electronic smearing" >
    <i type="int" name="ISMEAR">     0</i>
    <i name="SIGMA">      0.05000000</i>
    <i name="KSPACING">      0.50000000</i>
    <i type="logical" name="KGAMMA"> T  </i>
    <i type="logical" name="KBLOWUP"> T  </i>
   </separator>
   <separator name="electronic projectors" >
    <i type="logical" name="LREAL"> F  </i>
    <v name="ROPT">      0.00000000      0.00000000      0.00000000      0.00000000      0.00000000</v>
    <i type="int" name="LMAXPAW">  -100</i>
    <i type="int" name="LMAXMIX">     2</i>
    <i type="logical" name="NLSPLINE"> F  </i>
   </separator>
   <separator name="electronic startup" >
    <i type="int" name="ISTART">     0</i>
    <i type="int" name="ICHARG">     2</i>
    <i type="int" name="INIWAV">     1</i>
   </separator>
   <separator name="electronic spin" >
    <i type="int" name="ISPIN">     1</i>
    <i type="logical" name="LNONCOLLINEAR"> F  </i>
    <v name="MAGMOM">      1.00000000      1.00000000      1.00000000      1.00000000      1.00000000      1.00000000      1.00000000      1.00000000      1.00000000      1.00000000      1.00000000      1.00000000      1.00000000      1.00000000      1.00000000      1.00000000      1.00000000      1.00000000      1.00000000      1.00000000
      1.00000000      1.00000000      1.00000000      1.00000000</v>
    <i name="NUPDOWN">     -1.00000000</i>
    <i type="logical" name="LSORBIT"> F  </i>
    <v name="SAXIS">      0.00000000      0.00000000      1.00000000</v>
    <i type="logical" name="LSPIRAL"> F  </i>
    <v name="QSPIRAL">      0.00000000      0.00000000      0.00000000</v>
    <i type="logical" name="LZEROZ"> F  </i>
   </separator>
   <separator name="electronic exchange-correlation" >
    <i type="logical" name="LASPH"> T  </i>
    <i type="logical" name="LMETAGGA"> F  </i>
   </separator>
   <separator name="electronic convergence" >
    <i type="int" name="NELM">   200</i>
    <i type="int" name="NELMDL">    -5</i>
    <i type="int" name="NELMIN">     8</i>
    <i name="ENINI">    700.00000000</i>
    <separator name="electronic convergence detail" >
     <i type="logical" name="LDIAG"> T  </i>
     <i type="logical" name="LSUBROT"> F  </i>
     <i name="WEIMIN">      0.00100000</i>
     <i name="EBREAK">      0.00000002</i>
     <i name="DEPER">      0.30000000</i>
     <i type="int" name="NRMM">     4</i>
     <i name="TIME">      0.40000000</i>
    </separator>
   </separator>
   <separator name="electronic mixer" >
    <i name="AMIX">      0.40000000</i>
    <i name="BMIX">      1.00000000</i>
    <i name="AMIN">      0.10000000</i>
    <i name="AMIX_MAG">      1.60000000</i>
    <i name="BMIX_MAG">      1.00000000</i>
    <separator name="electronic mixer details" >
     <i type="int" name="IMIX">     4</i>
     <i type="logical" name="MIXFIRST"> F  </i>
     <i type="int" name="MAXMIX">   -45</i>
     <i name="WC">    100.00000000</i>
     <i type="int" name="INIMIX">     1</i>
     <i type="int" name="MIXPRE">     1</i>
     <i type="int" name="MREMOVE">     5</i>
    </separator>
   </separator>
   <separator name="electronic dipolcorrection" >
    <i type="logical" name="LDIPOL"> F  </i>
    <i type="logical" name="LMONO"> F  </i>
    <i type="int" name="IDIPOL">     0</i>
    <i name="EPSILON">      1.00000000</i>
    <v name="DIPOL">   -100.00000000   -100.00000000   -100.00000000</v>
    <i name="EFIELD">      0.00000000</i>
   </separator>
  </separator>
  <separator name="grids" >
   <i type="int" name="NGX">    80</i>
   <i type="int" name="NGY">    80</i>
   <i type="int" name="NGZ">    54</i>
   <i type="int" name="NGXF">   160</i>
   <i type="int" name="NGYF">   160</i>
   <i type="int" name="NGZF">   108</i>
   <i type="logical" name="ADDGRID"> F  </i>
  </separator>
  <separator name="ionic" >
   <i type="int" name="NSW">  1000</i>
   <i type="int" name="IBRION">     2</i>
   <i type="int" name="MDALGO">     0</i>
   <i type="int" name="ISIF">     0</i>
   <i name="PSTRESS">      0.00000000</i>
   <i name="EDIFFG">     -0.01000000</i>
   <i type="int" name="NFREE">     1</i>
   <i name="POTIM">      0.50000000</i>
   <i name="SMASS">     -3.00000000</i>
   <i name="SCALEE">      1.00000000</i>
  </separator>
  <separator name="ionic md" >
   <i name="TEBEG">      0.00010000</i>
   <i name="TEEND">      0.00010000</i>
   <i type="int" name="NBLOCK">     1</i>
   <i type="int" name="KBLOCK">  1000</i>
   <i type="int" name="NPACO">   256</i>
   <i name="APACO">     10.00000000</i>
  </separator>
  <separator name="symmetry" >
   <i type="int" name="ISYM">     0</i>
   <i name="SYMPREC">      0.00001000</i>
  </separator>
  <separator name="dos" >
   <i type="int" name="LORBIT">     0</i>
   <v name="RWIGS">     -1.00000000     -1.00000000     -1.00000000     -1.00000000     -1.00000000</v>
   <i type="int" name="NEDOS">   301</i>
   <i name="EMIN">     10.00000000</i>
   <i name="EMAX">    -10.00000000</i>
   <i name="EFERMI">      0.00000000</i>
  </separator>
  <separator name="writing" >
   <i type="int" name="NWRITE">     2</i>
   <i type="logical" name="LWAVE"> F  </i>
   <i type="logical" name="LDOWNSAMPLE"> F  </i>
   <i type="logical" name="LCHARG"> F  </i>
   <i type="logical" name="LPARD"> F  </i>
   <i type="logical" name="LVTOT"> F  </i>
   <i type="logical" name="LVHAR"> F  </i>
   <i type="logical" name="LELF"> F  </i>
   <i type="logical" name="LOPTICS"> F  </i>
   <v name="STM">      0.00000000      0.00000000      0.00000000      0.00000000      0.00000000      0.00000000      0.00000000</v>
  </separator>
  <separator name="performance" >
   <i type="int" name="NPAR">     8</i>
   <i type="int" name="NSIM">     4</i>
   <i type="int" name="NBLK">    -1</i>
   <i type="logical" name="LPLANE"> T  </i>
   <i type="logical" name="LSCALAPACK"> T  </i>
   <i type="logical" name="LSCAAWARE"> F  </i>
   <i type="logical" name="LSCALU"> F  </i>
   <i type="logical" name="LASYNC"> F  </i>
   <i type="logical" name="LORBITALREAL"> F  </i>
  </separator>
  <separator name="miscellaneous" >
   <i type="int" name="IDIOT">     3</i>
   <i type="int" name="PHON_NSTRUCT">    -1</i>
   <i type="logical" name="LMUSIC"> F  </i>
   <v name="POMASS">     12.01100000      1.00000000    126.90400000     14.00100000    118.71000000</v>
   <v name="DARWINR">      0.00000000      0.00000000      0.00000000      0.00000000      0.00000000</v>
   <v name="DARWINV">      1.00000000      1.00000000      1.00000000      1.00000000      1.00000000</v>
   <i type="logical" name="LCORR"> T  </i>
  </separator>
  <i type="logical" name="GGA_COMPAT"> T  </i>
  <i type="logical" name="LBERRY"> F  </i>
  <i type="int" name="ICORELEVEL">     0</i>
  <i type="logical" name="LDAU"> F  </i>
  <i type="int" name="I_CONSTRAINED_M">     0</i>
  <separator name="electronic exchange-correlation" >
   <i type="string" name="GGA">--</i>
   <i type="int" name="VOSKOWN">     0</i>
   <i type="logical" name="LHFCALC"> F  </i>
   <i type="string" name="PRECFOCK"></i>
   <i type="logical" name="LSYMGRAD"> F  </i>
   <i type="logical" name="LHFONE"> F  </i>
   <i type="logical" name="LRHFCALC"> F  </i>
   <i type="logical" name="LTHOMAS"> F  </i>
   <i type="logical" name="LMODELHF"> F  </i>
   <i type="logical" name="LFOCKACE"> F  </i>
   <i name="ENCUT4O">     -1.00000000</i>
   <i type="int" name="EXXOEP">     0</i>
   <i type="int" name="FOURORBIT">     0</i>
   <i name="AEXX">      0.00000000</i>
   <i name="HFALPHA">      0.00000000</i>
   <i name="MCALPHA">      0.00000000</i>
   <i name="ALDAX">      1.00000000</i>
   <i name="AGGAX">      1.00000000</i>
   <i name="ALDAC">      1.00000000</i>
   <i name="AGGAC">      1.00000000</i>
   <i type="int" name="NKREDX">     1</i>
   <i type="int" name="NKREDY">     1</i>
   <i type="int" name="NKREDZ">     1</i>
   <i type="logical" name="SHIFTRED"> F  </i>
   <i type="logical" name="ODDONLY"> F  </i>
   <i type="logical" name="EVENONLY"> F  </i>
   <i type="int" name="LMAXFOCK">     0</i>
   <i type="int" name="NMAXFOCKAE">     0</i>
   <i type="logical" name="LFOCKAEDFT"> F  </i>
   <i name="HFSCREEN">      0.00000000</i>
   <i name="HFSCREENC">      0.00000000</i>
   <i type="int" name="NBANDSGWLOW">     0</i>
  </separator>
  <separator name="vdW DFT" >
   <i type="logical" name="LUSE_VDW"> F  </i>
   <i name="Zab_VDW">     -0.84910000</i>
   <i name="PARAM1">      0.12340000</i>
   <i name="PARAM2">      1.00000000</i>
   <i name="PARAM3">      0.00000000</i>
  </separator>
  <separator name="model GW" >
   <i type="int" name="MODEL_GW">     0</i>
   <i name="MODEL_EPS0">     12.36587958</i>
   <i name="MODEL_ALPHA">      1.00000000</i>
  </separator>
  <separator name="linear response parameters" >
   <i type="logical" name="LEPSILON"> F  </i>
   <i type="logical" name="LRPA"> F  </i>
   <i type="logical" name="LNABLA"> F  </i>
   <i type="logical" name="LVEL"> F  </i>
   <i name="CSHIFT">      0.10000000</i>
   <i name="OMEGAMAX">     -1.00000000</i>
   <i name="DEG_THRESHOLD">      0.00200000</i>
   <i name="RTIME">     -0.10000000</i>
   <i name="WPLASMAI">      0.00000000</i>
   <v name="DFIELD">      0.00000000      0.00000000      0.00000000</v>
   <v name="WPLASMA">      0.00000000      0.00000000      0.00000000      0.00000000      0.00000000      0.00000000      0.00000000      0.00000000      0.00000000</v>
  </separator>
  <separator name="orbital magnetization" >
   <i type="logical" name="NUCIND"> F  </i>
   <v name="MAGPOS">      0.00000000      0.00000000      0.00000000</v>
   <i type="logical" name="LNICSALL"> T  </i>
   <i type="logical" name="ORBITALMAG"> F  </i>
   <i type="logical" name="LMAGBLOCH"> F  </i>
   <i type="logical" name="LCHIMAG"> F  </i>
   <i type="logical" name="LGAUGE"> T  </i>
   <i type="int" name="MAGATOM">     0</i>
   <v name="MAGDIPOL">      0.00000000      0.00000000      0.00000000</v>
   <v name="AVECCONST">      0.00000000      0.00000000      0.00000000</v>
  </separator>
  <separator name="response functions" >
   <i type="logical" name="LFINITE_TEMPERATURE"> F  </i>
   <i type="logical" name="LADDER"> F  </i>
   <i type="logical" name="LRPAFORCE"> F  </i>
   <i type="logical" name="LFXC"> F  </i>
   <i type="logical" name="LHARTREE"> T  </i>
   <i type="int" name="IBSE">     0</i>
   <v type="int" name="KPOINT">    -1     0     0     0</v>
   <i type="logical" name="LTCTC"> F  </i>
   <i type="logical" name="LTCTE"> F  </i>
   <i type="logical" name="LTETE"> F  </i>
   <i type="logical" name="LTRIPLET"> F  </i>
   <i type="logical" name="LFXCEPS"> F  </i>
   <i type="logical" name="LFXHEG"> F  </i>
   <i type="int" name="NATURALO">     2</i>
   <i type="logical" name="LHOLEGF"> F  </i>
   <i type="logical" name="L2ORDER"> F  </i>
   <i type="logical" name="LDMP1"> F  </i>
   <i type="logical" name="LMP2LT"> F  </i>
   <i type="logical" name="LSMP2LT"> F  </i>
   <i type="logical" name="LGWLF"> F  </i>
   <i name="ENCUTGW">     -2.00000000</i>
   <i name="ENCUTGWSOFT">     -2.00000000</i>
   <i name="ENCUTLF">     -1.00000000</i>
   <i type="logical" name="LESF_SPLINES"> F  </i>
   <i type="int" name="LMAXMP2">    -1</i>
   <i name="SCISSOR">      0.00000000</i>
   <i type="int" name="NOMEGA">     0</i>
   <i type="int" name="NOMEGAR">     0</i>
   <i type="int" name="NBANDSGW">    -1</i>
   <i type="int" name="NBANDSO">    -1</i>
   <i type="int" name="NBANDSV">    -1</i>
   <i type="int" name="NELMGW">     1</i>
   <i type="int" name="NELMHF">     1</i>
   <i type="int" name="DIM">     3</i>
   <i type="int" name="IESPILON">     4</i>
   <i type="int" name="ANTIRES">     0</i>
   <i name="OMEGAMAX">    -30.00000000</i>
   <i name="OMEGAMIN">    -30.00000000</i>
   <i name="OMEGATL">   -200.00000000</i>
   <i type="int" name="OMEGAGRID">     0</i>
   <i name="CSHIFT">     -0.10000000</i>
   <i type="logical" name="LSELFENERGY"> F  </i>
   <i type="logical" name="LSPECTRAL"> F  </i>
   <i type="logical" name="LSPECTRALGW"> F  </i>
   <i type="logical" name="LSINGLES"> F  </i>
   <i type="logical" name="LFERMIGW"> F  </i>
   <i type="logical" name="ODDONLYGW"> F  </i>
   <i type="logical" name="EVENONLYGW"> F  </i>
   <i type="int" name="NKREDLFX">     1</i>
   <i type="int" name="NKREDLFY">     1</i>
   <i type="int" name="NKREDLFZ">     1</i>
   <i type="int" name="MAXMEM">  2800</i>
   <i type="int" name="TELESCOPE">     0</i>
   <i type="int" name="NTAUPAR">    -1</i>
   <i type="int" name="NOMEGAPAR">    -1</i>
   <i name="DAMP_NEWTON">      0.80000001</i>
   <i name="LAMBDA">      1.00000000</i>
  </separator>
  <separator name="External order field" >
   <i name="OFIELD_KAPPA">      0.00000000</i>
   <v name="OFIELD_K">      0.00000000      0.00000000      0.00000000</v>
   <i name="OFIELD_Q6_NEAR">      0.00000000</i>
   <i name="OFIELD_Q6_FAR">      0.00000000</i>
   <i name="OFIELD_A">      0.00000000</i>
  </separator>
  <separator name="optional k-points parameters" >
   <i type="int" name="KPOINTS_OPT_MODE">     1</i>
   <i type="logical" name="LKPOINTS_OPT"> F  </i>
  </separator>
 </parameters>
 <atominfo>
  <atoms>      24 </atoms>
  <types>       5 </types>
  <array name="atoms" >
   <dimension dim="1">ion</dimension>
   <field type="string">element</field>
   <field type="int">atomtype</field>
   <set>
    <rc><c>C </c><c>   1</c></rc>
    <rc><c>C </c><c>   1</c></rc>
    <rc><c>H </c><c>   2</c></rc>
    <rc><c>H </c><c>   2</c></rc>
    <rc><c>H </c><c>   2</c></rc>
    <rc><c>H </c><c>   2</c></rc>
    <rc><c>H </c><c>   2</c></rc>
    <rc><c>H </c><c>   2</c></rc>
    <rc><c>H </c><c>   2</c></rc>
    <rc><c>H </c><c>   2</c></rc>
    <rc><c>H </c><c>   2</c></rc>
    <rc><c>H </c><c>   2</c></rc>
    <rc><c>I </c><c>   3</c></rc>
    <rc><c>I </c><c>   3</c></rc>
    <rc><c>I </c><c>   3</c></rc>
    <rc><c>I </c><c>   3</c></rc>
    <rc><c>I </c><c>   3</c></rc>
    <rc><c>I </c><c>   3</c></rc>
    <rc><c>N </c><c>   4</c></rc>
    <rc><c>N </c><c>   4</c></rc>
    <rc><c>N </c><c>   4</c></rc>
    <rc><c>N </c><c>   4</c></rc>
    <rc><c>Sn</c><c>   5</c></rc>
    <rc><c>Sn</c><c>   5</c></rc>
   </set>
  </array>
  <array name="atomtypes" >
   <dimension dim="1">type</dimension>
   <field type="int">atomspertype</field>
   <field type="string">element</field>
   <field>mass</field>
   <field>valence</field>
   <field type="string">pseudopotential</field>
   <set>
    <rc><c>   2</c><c>C </c><c>     12.01100000</c><c>      4.00000000</c><c>  PAW_PBE C 08Apr2002                   </c></rc>
    <rc><c>  10</c><c>H </c><c>      1.00000000</c><c>      1.00000000</c><c>  PAW_PBE H 15Jun2001                   </c></rc>
    <rc><c>   6</c><c>I </c><c>    126.90400000</c><c>      7.00000000</c><c>  PAW_PBE I 08Apr2002                   </c></rc>
    <rc><c>   4</c><c>N </c><c>     14.00100000</c><c>      5.00000000</c><c>  PAW_PBE N 08Apr2002                   </c></rc>
    <rc><c>   2</c><c>Sn</c><c>    118.71000000</c><c>      4.00000000</c><c>  PAW_PBE Sn 08Apr2002                  </c></rc>
   </set>
  </array>
 </atominfo>
 <structure name="initialpos" >
  <crystal>
   <varray name="basis" >
    <v>       8.88210000       0.00000000       0.00000000 </v>
    <v>       0.00000000       8.88210000       0.00000000 </v>
    <v>       0.00000000       0.00000000       6.26980000 </v>
   </varray>
   <i name="volume">    494.63518323 </i>
   <varray name="rec_basis" >
    <v>       0.11258599       0.00000000       0.00000000 </v>
    <v>       0.00000000       0.11258599       0.00000000 </v>
    <v>       0.00000000       0.00000000       0.15949472 </v>
   </varray>
  </crystal>
  <varray name="positions" >
   <v>       0.47649372       0.96546986       0.96718085 </v>
   <v>       0.97649372       0.46048546       0.01834169 </v>
   <v>       0.51060727       0.05231799       0.26813926 </v>
   <v>       0.62217999       0.14221497       0.91757696 </v>
   <v>       0.56690027       0.04008199       0.69120017 </v>
   <v>       0.39059061       0.89622441       0.24954096 </v>
   <v>       0.41535953       0.87566886       0.88192826 </v>
   <v>       0.01060727       0.68136268       0.10667866 </v>
   <v>       0.12217999       0.54170845       0.79049591 </v>
   <v>       0.06690027       0.35290697       0.76513896 </v>
   <v>       0.89059061       0.57491657       0.26948097 </v>
   <v>       0.91535953       0.35777668       0.06610284 </v>
   <v>       0.27770000       0.22230000       0.50000000 </v>
   <v>       0.72230000       0.77770000       0.50000000 </v>
   <v>       0.77770000       0.27770000       0.50000000 </v>
   <v>       0.22230000       0.72230000       0.50000000 </v>
   <v>       0.00000000       0.00000000       0.00000000 </v>
   <v>       0.50000000       0.50000000       0.00000000 </v>
   <v>       0.56250941       0.05431909       0.85402249 </v>
   <v>       0.45724151       0.97482215       0.17351646 </v>
   <v>       0.06250941       0.45224215       0.84948904 </v>
   <v>       0.95724151       0.58101753       0.13493429 </v>
   <v>       0.00000000       0.00000000       0.50000000 </v>
   <v>       0.50000000       0.50000000       0.50000000 </v>
  </varray>
  <varray name="selective"  type="logical" >
   <v type="logical" >  T  T  T </v>
   <v type="logical" >  T  T  T </v>
   <v type="logical" >  T  T  T </v>
   <v type="logical" >  T  T  T </v>
   <v type="logical" >  T  T  T </v>
   <v type="logical" >  T  T  T </v>
   <v type="logical" >  T  T  T </v>
   <v type="logical" >  T  T  T </v>
   <v type="logical" >  T  T  T </v>
   <v type="logical" >  T  T  T </v>
   <v type="logical" >  T  T  T </v>
   <v type="logical" >  T  T  T </v>
   <v type="logical" >  F  F  F </v>
   <v type="logical" >  F  F  F </v>
   <v type="logical" >  F  F  F </v>
   <v type="logical" >  F  F  F </v>
   <v type="logical" >  F  F  F </v>
   <v type="logical" >  F  F  F </v>
   <v type="logical" >  T  T  T </v>
   <v type="logical" >  T  T  T </v>
   <v type="logical" >  T  T  T </v>
   <v type="logical" >  T  T  T </v>
   <v type="logical" >  F  F  F </v>
   <v type="logical" >  F  F  F </v>
  </varray>
  <nose>
   <v>      -3.00000000       0.00000000       0.00010000       0.00010000 </v>
  </nose>
 </structure>
 <calculation>
  <scstep>
   <time name="total">    5.22    5.55</time>
   <energy>
    <i name="alphaZ">     58.39988875 </i>
    <i name="ewald">  -2318.62725854 </i>
    <i name="hartreedc">  -1053.52880012 </i>
    <i name="XCdc">    -86.68588793 </i>
    <i name="pawpsdc">   2967.97854685 </i>
    <i name="pawaedc">  -2815.24909770 </i>
    <i name="eentropy">     -0.00501320 </i>
    <i name="bandstr">     63.72417296 </i>
    <i name="atom">   3560.73399828 </i>
    <i name="e_fr_energy">    376.74054935 </i>
    <i name="e_wo_entrp">    376.74556255 </i>
    <i name="e_0_energy">    376.74305595 </i>
   </energy>
  </scstep>
  <scstep>
   <time name="total">    5.26    5.28</time>
   <energy>
    <i name="e_fr_energy">   -244.08881221 </i>
    <i name="e_wo_entrp">   -244.08877017 </i>
    <i name="e_0_energy">   -244.08879119 </i>
   </energy>
  </scstep>
  <scstep>
   <time name="total">    5.16    5.17</time>
   <energy>
    <i name="e_fr_energy">   -320.08444139 </i>
    <i name="e_wo_entrp">   -320.08444138 </i>
    <i name="e_0_energy">   -320.08444139 </i>
   </energy>
  </scstep>
  <scstep>
   <time name="total">    5.18    5.19</time>
   <energy>
    <i name="e_fr_energy">   -321.90067558 </i>
    <i name="e_wo_entrp">   -321.90067504 </i>
    <i name="e_0_energy">   -321.90067531 </i>
   </energy>
  </scstep>
  <scstep>
   <time name="total">    5.58    5.60</time>
   <energy>
    <i name="e_fr_energy">   -321.94424460 </i>
    <i name="e_wo_entrp">   -321.94424399 </i>
    <i name="e_0_energy">   -321.94424429 </i>
   </energy>
  </scstep>
  <scstep>
   <time name="total">    6.41    6.42</time>
   <energy>
    <i name="e_fr_energy">   -289.84011511 </i>
    <i name="e_wo_entrp">   -289.84011511 </i>
    <i name="e_0_energy">   -289.84011511 </i>
   </energy>
  </scstep>
  <scstep>
   <time name="total">    6.38    6.39</time>
   <energy>
    <i name="e_fr_energy">   -295.33777667 </i>
    <i name="e_wo_entrp">   -295.33777667 </i>
    <i name="e_0_energy">   -295.33777667 </i>
   </energy>
  </scstep>
  <scstep>
   <time name="total">    6.39    6.40</time>
   <energy>
    <i name="e_fr_energy">   -296.08608579 </i>
    <i name="e_wo_entrp">   -296.08608579 </i>
    <i name="e_0_energy">   -296.08608579 </i>
   </energy>
  </scstep>
  <scstep>
   <time name="total">    6.41    6.42</time>
   <energy>
    <i name="e_fr_energy">   -296.32271143 </i>
    <i name="e_wo_entrp">   -296.32271143 </i>
    <i name="e_0_energy">   -296.32271143 </i>
   </energy>
  </scstep>
  <scstep>
   <time name="total">    6.39    6.39</time>
   <energy>
    <i name="e_fr_energy">   -296.39486052 </i>
    <i name="e_wo_entrp">   -296.39486052 </i>
    <i name="e_0_energy">   -296.39486052 </i>
   </energy>
  </scstep>
  <scstep>
   <time name="total">    6.39    6.40</time>
   <energy>
    <i name="e_fr_energy">   -296.41707992 </i>
    <i name="e_wo_entrp">   -296.41707992 </i>
    <i name="e_0_energy">   -296.41707992 </i>
   </energy>
  </scstep>
  <scstep>
   <time name="total">    6.39    6.40</time>
   <energy>
    <i name="e_fr_energy">   -296.42233368 </i>
    <i name="e_wo_entrp">   -296.42233368 </i>
    <i name="e_0_energy">   -296.42233368 </i>
   </energy>
  </scstep>
  <scstep>
   <time name="total">    6.40    6.41</time>
   <energy>
    <i name="e_fr_energy">   -296.42353190 </i>
    <i name="e_wo_entrp">   -296.42353190 </i>
    <i name="e_0_energy">   -296.42353190 </i>
   </energy>
  </scstep>
  <scstep>
   <time name="total">    6.39    6.40</time>
   <energy>
    <i name="e_fr_energy">   -296.42381513 </i>
    <i name="e_wo_entrp">   -296.42381513 </i>
    <i name="e_0_energy">   -296.42381513 </i>
   </energy>
  </scstep>
  <scstep>
   <time name="total">    6.40    6.41</time>
   <energy>
    <i name="e_fr_energy">   -296.42387945 </i>
    <i name="e_wo_entrp">   -296.42387945 </i>
    <i name="e_0_energy">   -296.42387945 </i>
   </energy>
  </scstep>
  <scstep>
   <time name="total">    6.38    6.39</time>
   <energy>
    <i name="e_fr_energy">   -296.42389580 </i>
    <i name="e_wo_entrp">   -296.42389580 </i>
    <i name="e_0_energy">   -296.42389580 </i>
   </energy>
  </scstep>
  <scstep>
   <time name="total">    7.33    7.35</time>
   <energy>
    <i name="alphaZ">     58.39988875 </i>
    <i name="ewald">  -2318.62725854 </i>
    <i name="hartreedc">  -1164.89946987 </i>
    <i name="XCdc">    -71.76575240 </i>
    <i name="pawpsdc">   6463.80166622 </i>
    <i name="pawaedc">  -6313.73801602 </i>
    <i name="eentropy">     -0.00000000 </i>
    <i name="bandstr">   -510.32895617 </i>
    <i name="atom">   3560.73399828 </i>
    <i name="e_fr_energy">   -296.42389977 </i>
    <i name="e_wo_entrp">   -296.42389977 </i>
    <i name="e_0_energy">   -296.42389977 </i>
   </energy>
  </scstep>
  <structure>
   <crystal>
    <varray name="basis" >
     <v>       8.88210000       0.00000000       0.00000000 </v>
     <v>       0.00000000       8.88210000       0.00000000 </v>
     <v>       0.00000000       0.00000000       6.26980000 </v>
    </varray>
    <i name="volume">    494.63518323 </i>
    <varray name="rec_basis" >
     <v>       0.11258599       0.00000000       0.00000000 </v>
     <v>       0.00000000       0.11258599       0.00000000 </v>
     <v>       0.00000000       0.00000000       0.15949472 </v>
    </varray>
   </crystal>
   <varray name="positions" >
    <v>       0.47649372       0.96546986       0.96718085 </v>
    <v>       0.97649372       0.46048546       0.01834169 </v>
    <v>       0.51060727       0.05231799       0.26813926 </v>
    <v>       0.62217999       0.14221497       0.91757696 </v>
    <v>       0.56690027       0.04008199       0.69120017 </v>
    <v>       0.39059061       0.89622441       0.24954096 </v>
    <v>       0.41535953       0.87566886       0.88192826 </v>
    <v>       0.01060727       0.68136268       0.10667866 </v>
    <v>       0.12217999       0.54170845       0.79049591 </v>
    <v>       0.06690027       0.35290697       0.76513896 </v>
    <v>       0.89059061       0.57491657       0.26948097 </v>
    <v>       0.91535953       0.35777668       0.06610284 </v>
    <v>       0.27770000       0.22230000       0.50000000 </v>
    <v>       0.72230000       0.77770000       0.50000000 </v>
    <v>       0.77770000       0.27770000       0.50000000 </v>
    <v>       0.22230000       0.72230000       0.50000000 </v>
    <v>       0.00000000       0.00000000       0.00000000 </v>
    <v>       0.50000000       0.50000000       0.00000000 </v>
    <v>       0.56250941       0.05431909       0.85402249 </v>
    <v>       0.45724151       0.97482215       0.17351646 </v>
    <v>       0.06250941       0.45224215       0.84948904 </v>
    <v>       0.95724151       0.58101753       0.13493429 </v>
    <v>       0.00000000       0.00000000       0.50000000 </v>
    <v>       0.50000000       0.50000000       0.50000000 </v>
   </varray>
  </structure>
  <varray name="forces" >
   <v>      -0.24463298      -0.33409952      -0.10829828 </v>
   <v>      -0.21418519      -0.33677529       0.02942188 </v>
   <v>      -0.25009983      -0.30088446      -0.45755563 </v>
   <v>      -0.31114021      -0.38766054      -0.20712249 </v>
   <v>       0.08870585       0.12806080       0.90406121 </v>
   <v>       0.38019158       0.50456214      -0.26231201 </v>
   <v>       0.27666485       0.41463245       0.26308174 </v>
   <v>      -0.26637483      -0.38242863      -0.02322337 </v>
   <v>      -0.18207916      -0.27452417       0.12077273 </v>
   <v>       0.11316365       0.67128994       0.35798972 </v>
   <v>       0.40635346       0.12808768      -0.67481579 </v>
   <v>       0.28778764       0.48957663      -0.12880845 </v>
   <v>      -0.11957870       0.08072215      -0.01093010 </v>
   <v>       0.03907673      -0.04587917       0.09709717 </v>
   <v>      -0.06441753      -0.05325260      -0.13662189 </v>
   <v>       0.15660657       0.17456008       0.02379640 </v>
   <v>       0.03548009       0.01007022       0.00439940 </v>
   <v>       0.01699016      -0.01390778       0.00418646 </v>
   <v>       0.17613290       0.25300652      -0.45066394 </v>
   <v>      -0.06670420      -0.32139652       0.31595825 </v>
   <v>      -0.02907649      -0.43413254      -0.20272636 </v>
   <v>      -0.21908430       0.03496796       0.53981257 </v>
   <v>      -0.04107929       0.03147247      -0.00128855 </v>
   <v>       0.03129924      -0.03606780       0.00378931 </v>
  </varray>
  <energy>
   <i name="e_fr_energy">   -296.42389977 </i>
   <i name="e_wo_entrp">   -296.42389977 </i>
   <i name="e_0_energy">   -296.42389977 </i>
  </energy>
  <time name="totalsc">  107.41  107.90</time>
 </calculation>
 <calculation>
  <scstep>
   <time name="total">    6.40    6.40</time>
   <energy>
    <i name="alphaZ">     58.39988875 </i>
    <i name="ewald">  -2308.28182252 </i>
    <i name="hartreedc">  -1166.75940758 </i>
    <i name="XCdc">    -71.50522118 </i>
    <i name="pawpsdc">   6777.10585545 </i>
    <i name="pawaedc">  -6627.01294550 </i>
    <i name="eentropy">     -0.00000000 </i>
    <i name="bandstr">   -516.54410280 </i>
    <i name="atom">   3560.73399828 </i>
    <i name="e_fr_energy">   -293.86375710 </i>
    <i name="e_wo_entrp">   -293.86375710 </i>
    <i name="e_0_energy">   -293.86375710 </i>
   </energy>
  </scstep>
  <scstep>
   <time name="total">    6.39    6.39</time>
   <energy>
    <i name="e_fr_energy">   -295.70009348 </i>
    <i name="e_wo_entrp">   -295.70009348 </i>
    <i name="e_0_energy">   -295.70009348 </i>
   </energy>
  </scstep>
  <scstep>
   <time name="total">    6.37    6.38</time>
   <energy>
    <i name="e_fr_energy">   -296.09782236 </i>
    <i name="e_wo_entrp">   -296.09782236 </i>
    <i name="e_0_energy">   -296.09782236 </i>
   </energy>
  </scstep>
  <scstep>
   <time name="total">    6.38    6.38</time>
   <energy>
    <i name="e_fr_energy">   -296.16029975 </i>
    <i name="e_wo_entrp">   -296.16029975 </i>
    <i name="e_0_energy">   -296.16029975 </i>
   </energy>
  </scstep>
  <scstep>
   <time name="total">    6.36    6.37</time>
   <energy>
    <i name="e_fr_energy">   -296.17273197 </i>
    <i name="e_wo_entrp">   -296.17273197 </i>
    <i name="e_0_energy">   -296.17273197 </i>
   </energy>
  </scstep>
  <scstep>
   <time name="total">    6.36    6.37</time>
   <energy>
    <i name="e_fr_energy">   -296.17577054 </i>
    <i name="e_wo_entrp">   -296.17577054 </i>
    <i name="e_0_energy">   -296.17577054 </i>
   </energy>
  </scstep>
  <scstep>
   <time name="total">    6.36    6.37</time>
   <energy>
    <i name="e_fr_energy">   -296.17676857 </i>
    <i name="e_wo_entrp">   -296.17676857 </i>
    <i name="e_0_energy">   -296.17676857 </i>
   </energy>
  </scstep>
  <scstep>
   <time name="total">    6.37    6.38</time>
   <energy>
    <i name="e_fr_energy">   -296.17708097 </i>
    <i name="e_wo_entrp">   -296.17708097 </i>
    <i name="e_0_energy">   -296.17708097 </i>
   </energy>
  </scstep>
  <scstep>
   <time name="total">    6.36    6.38</time>
   <energy>
    <i name="e_fr_energy">   -296.17715449 </i>
    <i name="e_wo_entrp">   -296.17715449 </i>
    <i name="e_0_energy">   -296.17715449 </i>
   </energy>
  </scstep>
  <scstep>
   <time name="total">    6.39    6.42</time>
   <energy>
    <i name="e_fr_energy">   -296.17716922 </i>
    <i name="e_wo_entrp">   -296.17716922 </i>
    <i name="e_0_energy">   -296.17716922 </i>
   </energy>
  </scstep>
  <scstep>
   <time name="total">    7.32    7.33</time>
   <energy>
    <i name="alphaZ">     58.39988875 </i>
    <i name="ewald">  -2308.28182252 </i>
    <i name="hartreedc">  -1169.10551928 </i>
    <i name="XCdc">    -70.89697244 </i>
    <i name="pawpsdc">   6506.56725550 </i>
    <i name="pawaedc">  -6356.57095984 </i>
    <i name="eentropy">     -0.00000000 </i>
    <i name="bandstr">   -517.02304101 </i>
    <i name="atom">   3560.73399828 </i>
    <i name="e_fr_energy">   -296.17717257 </i>
    <i name="e_wo_entrp">   -296.17717257 </i>
    <i name="e_0_energy">   -296.17717257 </i>
   </energy>
  </scstep>
  <structure>
   <crystal>
    <varray name="basis" >
     <v>       8.88210000       0.00000000       0.00000000 </v>
     <v>       0.00000000       8.88210000       0.00000000 </v>
     <v>       0.00000000       0.00000000       6.26980000 </v>
    </varray>
    <i name="volume">    494.63518323 </i>
    <varray name="rec_basis" >
     <v>       0.11258599       0.00000000       0.00000000 </v>
     <v>       0.00000000       0.11258599       0.00000000 </v>
     <v>       0.00000000       0.00000000       0.15949472 </v>
    </varray>
   </crystal>
   <varray name="positions" >
    <v>       0.47516501       0.96365521       0.96634756 </v>
    <v>       0.97533038       0.45865629       0.01856807 </v>
    <v>       0.50924887       0.05068375       0.26461862 </v>
    <v>       0.62049004       0.14010942       0.91598327 </v>
    <v>       0.56738207       0.04077755       0.69815642 </v>
    <v>       0.39265560       0.89896491       0.24752261 </v>
    <v>       0.41686222       0.87792092       0.88395253 </v>
    <v>       0.00916047       0.67928554       0.10649997 </v>
    <v>       0.12119103       0.54021739       0.79142519 </v>
    <v>       0.06751491       0.35655305       0.76789349 </v>
    <v>       0.89279770       0.57561227       0.26428863 </v>
    <v>       0.91692263       0.36043579       0.06511173 </v>
    <v>       0.27770000       0.22230000       0.50000000 </v>
    <v>       0.72230000       0.77770000       0.50000000 </v>
    <v>       0.77770000       0.27770000       0.50000000 </v>
    <v>       0.22230000       0.72230000       0.50000000 </v>
    <v>       0.00000000       0.00000000       0.00000000 </v>
    <v>       0.50000000       0.50000000       0.00000000 </v>
    <v>       0.56346607       0.05569328       0.85055488 </v>
    <v>       0.45687921       0.97307650       0.17594759 </v>
    <v>       0.06235148       0.44988418       0.84792917 </v>
    <v>       0.95605157       0.58120746       0.13908785 </v>
    <v>       0.00000000       0.00000000       0.50000000 </v>
    <v>       0.50000000       0.50000000       0.50000000 </v>
   </varray>
  </structure>
  <varray name="forces" >
   <v>       1.48740255       1.97757545       0.73986339 </v>
   <v>       0.79254498       1.84422231      -0.15782390 </v>
   <v>       0.20559018       0.36453776       0.22890047 </v>
   <v>       0.40043537       0.63695487       0.25935036 </v>
   <v>       0.22209963      -0.22525413      -2.15827665 </v>
   <v>      -0.95688574      -1.05020377       0.84197209 </v>
   <v>      -0.53078561      -0.77329502      -0.52918642 </v>
   <v>      -0.06266398       0.11824965      -0.01382950 </v>
   <v>      -0.09027163      -0.19537658       0.02869521 </v>
   <v>       0.16917476      -1.76069321      -1.04179772 </v>
   <v>      -1.36372109      -0.06227007       1.82143609 </v>
   <v>      -0.53600953      -0.87613823       0.30245099 </v>
   <v>      -0.11038337       0.07838875      -0.02582204 </v>
   <v>       0.03234910      -0.03875952       0.10375072 </v>
   <v>      -0.06127530      -0.05019142      -0.14162508 </v>
   <v>       0.13918682       0.15387818       0.05331641 </v>
   <v>       0.03862298       0.00617275       0.00349484 </v>
   <v>       0.01371487      -0.00967457       0.00337952 </v>
   <v>      -1.79355576      -1.56055663       3.26216051 </v>
   <v>       1.01906916       0.59738924      -2.64544681 </v>
   <v>      -0.70108152       2.22544688       2.08602740 </v>
   <v>       1.69584230      -1.39791837      -3.02344797 </v>
   <v>      -0.04779185       0.02917565       0.00043474 </v>
   <v>       0.03839271      -0.03165997       0.00202335 </v>
  </varray>
  <energy>
   <i name="e_fr_energy">   -296.17717257 </i>
   <i name="e_wo_entrp">   -296.17717257 </i>
   <i name="e_0_energy">   -296.17717257 </i>
  </energy>
  <time name="totalsc">   74.39   74.50</time>
 </calculation>
 <calculation>
  <scstep>
   <time name="total">    6.37    6.37</time>
   <energy>
    <i name="alphaZ">     58.39988875 </i>
    <i name="ewald">  -2316.12547325 </i>
    <i name="hartreedc">  -1166.08310169 </i>
    <i name="XCdc">    -71.18789216 </i>
    <i name="pawpsdc">   6645.12023341 </i>
    <i name="pawaedc">  -6495.09834652 </i>
    <i name="eentropy">     -0.00000000 </i>
    <i name="bandstr">   -511.00551892 </i>
    <i name="atom">   3560.73399828 </i>
    <i name="e_fr_energy">   -295.24621209 </i>
    <i name="e_wo_entrp">   -295.24621209 </i>
    <i name="e_0_energy">   -295.24621209 </i>
   </energy>
  </scstep>
  <scstep>
   <time name="total">    6.37    6.37</time>
   <energy>
    <i name="e_fr_energy">   -296.21253977 </i>
    <i name="e_wo_entrp">   -296.21253977 </i>
    <i name="e_0_energy">   -296.21253977 </i>
   </energy>
  </scstep>
  <scstep>
   <time name="total">    6.37    6.38</time>
   <energy>
    <i name="e_fr_energy">   -296.41976188 </i>
    <i name="e_wo_entrp">   -296.41976188 </i>
    <i name="e_0_energy">   -296.41976188 </i>
   </energy>
  </scstep>
  <scstep>
   <time name="total">    6.37    6.38</time>
   <energy>
    <i name="e_fr_energy">   -296.45293782 </i>
    <i name="e_wo_entrp">   -296.45293782 </i>
    <i name="e_0_energy">   -296.45293782 </i>
   </energy>
  </scstep>
  <scstep>
   <time name="total">    6.37    6.38</time>
   <energy>
    <i name="e_fr_energy">   -296.45943033 </i>
    <i name="e_wo_entrp">   -296.45943033 </i>
    <i name="e_0_energy">   -296.45943033 </i>
   </energy>
  </scstep>
  <scstep>
   <time name="total">    6.37    6.38</time>
   <energy>
    <i name="e_fr_energy">   -296.46100960 </i>
    <i name="e_wo_entrp">   -296.46100960 </i>
    <i name="e_0_energy">   -296.46100960 </i>
   </energy>
  </scstep>
  <scstep>
   <time name="total">    6.38    6.38</time>
   <energy>
    <i name="e_fr_energy">   -296.46154024 </i>
    <i name="e_wo_entrp">   -296.46154024 </i>
    <i name="e_0_energy">   -296.46154024 </i>
   </energy>
  </scstep>
  <scstep>
   <time name="total">    6.37    6.38</time>
   <energy>
    <i name="e_fr_energy">   -296.46170929 </i>
    <i name="e_wo_entrp">   -296.46170929 </i>
    <i name="e_0_energy">   -296.46170929 </i>
   </energy>
  </scstep>
  <scstep>
   <time name="total">    6.35    6.37</time>
   <energy>
    <i name="e_fr_energy">   -296.46174975 </i>
    <i name="e_wo_entrp">   -296.46174975 </i>
    <i name="e_0_energy">   -296.46174975 </i>
   </energy>
  </scstep>
  <scstep>
   <time name="total">    6.38    6.39</time>
   <energy>
    <i name="e_fr_energy">   -296.46175799 </i>
    <i name="e_wo_entrp">   -296.46175799 </i>
    <i name="e_0_energy">   -296.46175799 </i>
   </energy>
  </scstep>
  <scstep>
   <time name="total">    7.31    7.32</time>
   <energy>
    <i name="alphaZ">     58.39988875 </i>
    <i name="ewald">  -2316.12547325 </i>
    <i name="hartreedc">  -1165.86948543 </i>
    <i name="XCdc">    -71.53974003 </i>
    <i name="pawpsdc">   6473.04768052 </i>
    <i name="pawaedc">  -6322.99993632 </i>
    <i name="eentropy">     -0.00000000 </i>
    <i name="bandstr">   -512.10869220 </i>
    <i name="atom">   3560.73399828 </i>
    <i name="e_fr_energy">   -296.46175968 </i>
    <i name="e_wo_entrp">   -296.46175968 </i>
    <i name="e_0_energy">   -296.46175968 </i>
   </energy>
  </scstep>
  <structure>
   <crystal>
    <varray name="basis" >
     <v>       8.88210000       0.00000000       0.00000000 </v>
     <v>       0.00000000       8.88210000       0.00000000 </v>
     <v>       0.00000000       0.00000000       6.26980000 </v>
    </varray>
    <i name="volume">    494.63518323 </i>
    <varray name="rec_basis" >
     <v>       0.11258599       0.00000000       0.00000000 </v>
     <v>       0.00000000       0.11258599       0.00000000 </v>
     <v>       0.00000000       0.00000000       0.15949472 </v>
    </varray>
   </crystal>
   <varray name="positions" >
    <v>       0.47612541       0.96496686       0.96694987 </v>
    <v>       0.97617125       0.45997844       0.01840444 </v>
    <v>       0.51023074       0.05186500       0.26716338 </v>
    <v>       0.62171155       0.14163134       0.91713521 </v>
    <v>       0.56703381       0.04027479       0.69312836 </v>
    <v>       0.39116300       0.89698404       0.24898149 </v>
    <v>       0.41577605       0.87629311       0.88248936 </v>
    <v>       0.01020624       0.68078693       0.10662913 </v>
    <v>       0.12190586       0.54129514       0.79075350 </v>
    <v>       0.06707064       0.35391762       0.76590248 </v>
    <v>       0.89120239       0.57510941       0.26804171 </v>
    <v>       0.91579280       0.35851375       0.06582812 </v>
    <v>       0.27770000       0.22230000       0.50000000 </v>
    <v>       0.72230000       0.77770000       0.50000000 </v>
    <v>       0.77770000       0.27770000       0.50000000 </v>
    <v>       0.22230000       0.72230000       0.50000000 </v>
    <v>       0.00000000       0.00000000       0.00000000 </v>
    <v>       0.50000000       0.50000000       0.00000000 </v>
    <v>       0.56277459       0.05470000       0.85306131 </v>
    <v>       0.45714109       0.97433828       0.17419034 </v>
    <v>       0.06246564       0.45158855       0.84905666 </v>
    <v>       0.95691167       0.58107018       0.13608561 </v>
    <v>       0.00000000       0.00000000       0.50000000 </v>
    <v>       0.50000000       0.50000000       0.50000000 </v>
   </varray>
  </structure>
  <varray name="forces" >
   <v>       0.23429089       0.29756977       0.08946977 </v>
   <v>       0.04253780       0.25040452      -0.00178111 </v>
   <v>      -0.13065898      -0.12905440      -0.27104659 </v>
   <v>      -0.12475890      -0.12028321      -0.09256071 </v>
   <v>       0.12099641       0.05365729       0.17962124 </v>
   <v>       0.05950515       0.12555595       0.00752745 </v>
   <v>       0.07535440       0.11849422       0.06726056 </v>
   <v>      -0.21034762      -0.24421291      -0.01818189 </v>
   <v>      -0.15580205      -0.25202590       0.09435763 </v>
   <v>       0.11986732       0.08786958       0.02626880 </v>
   <v>      -0.00407896       0.08120451      -0.08649916 </v>
   <v>       0.08144910       0.14819143      -0.02274364 </v>
   <v>      -0.11698290       0.08006667      -0.01537513 </v>
   <v>       0.03689453      -0.04370793       0.09924243 </v>
   <v>      -0.06323255      -0.05233146      -0.13811406 </v>
   <v>       0.15173629       0.16861639       0.03257327 </v>
   <v>       0.03652233       0.00948453       0.00415616 </v>
   <v>       0.01615329      -0.01260707       0.00404040 </v>
   <v>      -0.38060154      -0.28095376       0.49489032 </v>
   <v>       0.19573055      -0.10598681      -0.47758894 </v>
   <v>      -0.21182048       0.21290460       0.38204617 </v>
   <v>       0.23676755      -0.38914020      -0.36012665 </v>
   <v>      -0.04286628       0.03091045      -0.00073916 </v>
   <v>       0.03334465      -0.03462625       0.00330283 </v>
  </varray>
  <energy>
   <i name="e_fr_energy">   -296.46175968 </i>
   <i name="e_wo_entrp">   -296.46175968 </i>
   <i name="e_0_energy">   -296.46175968 </i>
  </energy>
  <time name="totalsc">   74.33   74.42</time>
 </calculation>
 <calculation>
  <scstep>
   <time name="total">    6.39    6.39</time>
   <energy>
    <i name="alphaZ">     58.39988875 </i>
    <i name="ewald">  -2292.93468914 </i>
    <i name="hartreedc">  -1172.35446092 </i>
    <i name="XCdc">    -71.23012823 </i>
    <i name="pawpsdc">   6582.29264976 </i>
    <i name="pawaedc">  -6432.27979055 </i>
    <i name="eentropy">     -0.00000000 </i>
    <i name="bandstr">   -528.34738971 </i>
    <i name="atom">   3560.73399828 </i>
    <i name="e_fr_energy">   -295.71992174 </i>
    <i name="e_wo_entrp">   -295.71992174 </i>
    <i name="e_0_energy">   -295.71992174 </i>
   </energy>
  </scstep>
  <scstep>
   <time name="total">    6.37    6.39</time>
   <energy>
    <i name="e_fr_energy">   -296.25620046 </i>
    <i name="e_wo_entrp">   -296.25620046 </i>
    <i name="e_0_energy">   -296.25620046 </i>
   </energy>
  </scstep>
  <scstep>
   <time name="total">    6.37    6.38</time>
   <energy>
    <i name="e_fr_energy">   -296.43480613 </i>
    <i name="e_wo_entrp">   -296.43480613 </i>
    <i name="e_0_energy">   -296.43480613 </i>
   </energy>
  </scstep>
  <scstep>
   <time name="total">    6.37    6.38</time>
   <energy>
    <i name="e_fr_energy">   -296.45957562 </i>
    <i name="e_wo_entrp">   -296.45957562 </i>
    <i name="e_0_energy">   -296.45957562 </i>
   </energy>
  </scstep>
  <scstep>
   <time name="total">    6.39    6.39</time>
   <energy>
    <i name="e_fr_energy">   -296.46472311 </i>
    <i name="e_wo_entrp">   -296.46472311 </i>
    <i name="e_0_energy">   -296.46472311 </i>
   </energy>
  </scstep>
  <scstep>
   <time name="total">    6.37    6.38</time>
   <energy>
    <i name="e_fr_energy">   -296.46615387 </i>
    <i name="e_wo_entrp">   -296.46615387 </i>
    <i name="e_0_energy">   -296.46615387 </i>
   </energy>
  </scstep>
  <scstep>
   <time name="total">    6.39    6.39</time>
   <energy>
    <i name="e_fr_energy">   -296.46667049 </i>
    <i name="e_wo_entrp">   -296.46667049 </i>
    <i name="e_0_energy">   -296.46667049 </i>
   </energy>
  </scstep>
  <scstep>
   <time name="total">    6.38    6.39</time>
   <energy>
    <i name="e_fr_energy">   -296.46682454 </i>
    <i name="e_wo_entrp">   -296.46682454 </i>
    <i name="e_0_energy">   -296.46682454 </i>
   </energy>
  </scstep>
  <scstep>
   <time name="total">    6.39    6.40</time>
   <energy>
    <i name="e_fr_energy">   -296.46686082 </i>
    <i name="e_wo_entrp">   -296.46686082 </i>
    <i name="e_0_energy">   -296.46686082 </i>
   </energy>
  </scstep>
  <scstep>
   <time name="total">    6.37    6.38</time>
   <energy>
    <i name="e_fr_energy">   -296.46686879 </i>
    <i name="e_wo_entrp">   -296.46686879 </i>
    <i name="e_0_energy">   -296.46686879 </i>
   </energy>
  </scstep>
  <scstep>
   <time name="total">    7.32    7.33</time>
   <energy>
    <i name="alphaZ">     58.39988875 </i>
    <i name="ewald">  -2292.93468914 </i>
    <i name="hartreedc">  -1184.83271648 </i>
    <i name="XCdc">    -70.71395210 </i>
    <i name="pawpsdc">   6613.82556485 </i>
    <i name="pawaedc">  -6463.84403051 </i>
    <i name="eentropy">     -0.00000000 </i>
    <i name="bandstr">   -517.10093417 </i>
    <i name="atom">   3560.73399828 </i>
    <i name="e_fr_energy">   -296.46687052 </i>
    <i name="e_wo_entrp">   -296.46687052 </i>
    <i name="e_0_energy">   -296.46687052 </i>
   </energy>
  </scstep>
  <structure>
   <crystal>
    <varray name="basis" >
     <v>       8.88210000       0.00000000       0.00000000 </v>
     <v>       0.00000000       8.88210000       0.00000000 </v>
     <v>       0.00000000       0.00000000       6.26980000 </v>
    </varray>
    <i name="volume">    494.63518323 </i>
    <varray name="rec_basis" >
     <v>       0.11258599       0.00000000       0.00000000 </v>
     <v>       0.00000000       0.11258599       0.00000000 </v>
     <v>       0.00000000       0.00000000       0.15949472 </v>
    </varray>
   </crystal>
   <varray name="positions" >
    <v>       0.47679696       0.96577989       0.96727723 </v>
    <v>       0.97600377       0.46056777       0.01846377 </v>
    <v>       0.50919731       0.05075245       0.26427431 </v>
    <v>       0.62060148       0.14041161       0.91602576 </v>
    <v>       0.56774722       0.04074241       0.69649398 </v>
    <v>       0.39208760       0.89842756       0.24839755 </v>
    <v>       0.41659781       0.87755050       0.88356743 </v>
    <v>       0.00877480       0.67900031       0.10645337 </v>
    <v>       0.12087156       0.53965617       0.79166624 </v>
    <v>       0.06782049       0.35547026       0.76693994 </v>
    <v>       0.89187616       0.57570506       0.26584267 </v>
    <v>       0.91666184       0.36003689       0.06536734 </v>
    <v>       0.27770000       0.22230000       0.50000000 </v>
    <v>       0.72230000       0.77770000       0.50000000 </v>
    <v>       0.77770000       0.27770000       0.50000000 </v>
    <v>       0.22230000       0.72230000       0.50000000 </v>
    <v>       0.00000000       0.00000000       0.00000000 </v>
    <v>       0.50000000       0.50000000       0.00000000 </v>
    <v>       0.56130647       0.05382592       0.85523038 </v>
    <v>       0.45793679       0.97329794       0.17180984 </v>
    <v>       0.06143189       0.45183768       0.85108174 </v>
    <v>       0.95763828       0.57932174       0.13501887 </v>
    <v>       0.00000000       0.00000000       0.50000000 </v>
    <v>       0.50000000       0.50000000       0.50000000 </v>
   </varray>
  </structure>
  <varray name="forces" >
   <v>      -0.51105635      -0.70619444      -0.11135053 </v>
   <v>      -0.06867536      -0.45219408      -0.08251963 </v>
   <v>       0.09416993       0.17825006      -0.02209732 </v>
   <v>       0.06269415       0.16906129       0.18747198 </v>
   <v>       0.03998721      -0.09846805      -0.19740451 </v>
   <v>      -0.20934259      -0.22397996       0.07520453 </v>
   <v>      -0.02268778      -0.04417540      -0.07663735 </v>
   <v>       0.05319457       0.10952083      -0.16710399 </v>
   <v>       0.04227706       0.16039901       0.02473165 </v>
   <v>       0.03686781      -0.20236397      -0.02449780 </v>
   <v>      -0.20020129      -0.04231487       0.13567219 </v>
   <v>      -0.15297967      -0.22061051       0.09444347 </v>
   <v>      -0.11218338       0.07684107      -0.01470783 </v>
   <v>       0.04418518      -0.04541789       0.09456385 </v>
   <v>      -0.06785382      -0.05832868      -0.12527052 </v>
   <v>       0.14451487       0.16330747       0.03006858 </v>
   <v>       0.03205682       0.00661003       0.00491667 </v>
   <v>       0.01685788      -0.01427223       0.00325365 </v>
   <v>       0.43717139       0.56007705      -0.24274194 </v>
   <v>       0.15659682       0.13532384       0.37666523 </v>
   <v>       0.21236501       0.05879092      -0.26877898 </v>
   <v>      -0.01925317       0.49241691       0.30407006 </v>
   <v>      -0.03905433       0.02875092      -0.00034678 </v>
   <v>       0.03034902      -0.03102933       0.00239534 </v>
  </varray>
  <energy>
   <i name="e_fr_energy">   -296.46687052 </i>
   <i name="e_wo_entrp">   -296.46687052 </i>
   <i name="e_0_energy">   -296.46687052 </i>
  </energy>
  <time name="totalsc">   74.43   74.52</time>
 </calculation>
 <calculation>
  <scstep>
   <time name="total">    6.38    6.38</time>
   <energy>
    <i name="alphaZ">     58.39988875 </i>
    <i name="ewald">  -2303.77803989 </i>
    <i name="hartreedc">  -1181.43703615 </i>
    <i name="XCdc">    -70.88096271 </i>
    <i name="pawpsdc">   6632.53078925 </i>
    <i name="pawaedc">  -6482.52276836 </i>
    <i name="eentropy">     -0.00000000 </i>
    <i name="bandstr">   -509.36970804 </i>
    <i name="atom">   3560.73399828 </i>
    <i name="e_fr_energy">   -296.32383887 </i>
    <i name="e_wo_entrp">   -296.32383887 </i>
    <i name="e_0_energy">   -296.32383887 </i>
   </energy>
  </scstep>
  <scstep>
   <time name="total">    6.38    6.39</time>
   <energy>
    <i name="e_fr_energy">   -296.43889031 </i>
    <i name="e_wo_entrp">   -296.43889031 </i>
    <i name="e_0_energy">   -296.43889031 </i>
   </energy>
  </scstep>
  <scstep>
   <time name="total">    6.36    6.37</time>
   <energy>
    <i name="e_fr_energy">   -296.47748346 </i>
    <i name="e_wo_entrp">   -296.47748346 </i>
    <i name="e_0_energy">   -296.47748346 </i>
   </energy>
  </scstep>
  <scstep>
   <time name="total">    6.36    6.37</time>
   <energy>
    <i name="e_fr_energy">   -296.48291072 </i>
    <i name="e_wo_entrp">   -296.48291072 </i>
    <i name="e_0_energy">   -296.48291072 </i>
   </energy>
  </scstep>
  <scstep>
   <time name="total">    6.36    6.37</time>
   <energy>
    <i name="e_fr_energy">   -296.48401510 </i>
    <i name="e_wo_entrp">   -296.48401510 </i>
    <i name="e_0_energy">   -296.48401510 </i>
   </energy>
  </scstep>
  <scstep>
   <time name="total">    6.35    6.36</time>
   <energy>
    <i name="e_fr_energy">   -296.48431812 </i>
    <i name="e_wo_entrp">   -296.48431812 </i>
    <i name="e_0_energy">   -296.48431812 </i>
   </energy>
  </scstep>
  <scstep>
   <time name="total">    6.39    6.39</time>
   <energy>
    <i name="e_fr_energy">   -296.48442676 </i>
    <i name="e_wo_entrp">   -296.48442676 </i>
    <i name="e_0_energy">   -296.48442676 </i>
   </energy>
  </scstep>
  <scstep>
   <time name="total">    6.37    6.38</time>
   <energy>
    <i name="e_fr_energy">   -296.48445993 </i>
    <i name="e_wo_entrp">   -296.48445993 </i>
    <i name="e_0_energy">   -296.48445993 </i>
   </energy>
  </scstep>
  <scstep>
   <time name="total">    6.37    6.38</time>
   <energy>
    <i name="e_fr_energy">   -296.48446784 </i>
    <i name="e_wo_entrp">   -296.48446784 </i>
    <i name="e_0_energy">   -296.48446784 </i>
   </energy>
  </scstep>
  <scstep>
   <time name="total">    7.33    7.33</time>
   <energy>
    <i name="alphaZ">     58.39988875 </i>
    <i name="ewald">  -2303.77803989 </i>
    <i name="hartreedc">  -1175.97122435 </i>
    <i name="XCdc">    -71.09905143 </i>
    <i name="pawpsdc">   6547.09353297 </i>
    <i name="pawaedc">  -6397.08093500 </i>
    <i name="eentropy">     -0.00000000 </i>
    <i name="bandstr">   -514.78263880 </i>
    <i name="atom">   3560.73399828 </i>
    <i name="e_fr_energy">   -296.48446947 </i>
    <i name="e_wo_entrp">   -296.48446947 </i>
    <i name="e_0_energy">   -296.48446947 </i>
   </energy>
  </scstep>
  <structure>
   <crystal>
    <varray name="basis" >
     <v>       8.88210000       0.00000000       0.00000000 </v>
     <v>       0.00000000       8.88210000       0.00000000 </v>
     <v>       0.00000000       0.00000000       6.26980000 </v>
    </varray>
    <i name="volume">    494.63518323 </i>
    <varray name="rec_basis" >
     <v>       0.11258599       0.00000000       0.00000000 </v>
     <v>       0.00000000       0.11258599       0.00000000 </v>
     <v>       0.00000000       0.00000000       0.15949472 </v>
    </varray>
   </crystal>
   <varray name="positions" >
    <v>       0.47648528       0.96540254       0.96712530 </v>
    <v>       0.97608150       0.46029425       0.01843623 </v>
    <v>       0.50967694       0.05126881       0.26561519 </v>
    <v>       0.62111669       0.14097771       0.91654068 </v>
    <v>       0.56741611       0.04052537       0.69493192 </v>
    <v>       0.39165847       0.89775759       0.24866857 </v>
    <v>       0.41621642       0.87696692       0.88306707 </v>
    <v>       0.00943916       0.67982952       0.10653495 </v>
    <v>       0.12135160       0.54041686       0.79124262 </v>
    <v>       0.06747246       0.35474965       0.76645843 </v>
    <v>       0.89156345       0.57542861       0.26686330 </v>
    <v>       0.91625850       0.35932997       0.06558120 </v>
    <v>       0.27770000       0.22230000       0.50000000 </v>
    <v>       0.72230000       0.77770000       0.50000000 </v>
    <v>       0.77770000       0.27770000       0.50000000 </v>
    <v>       0.22230000       0.72230000       0.50000000 </v>
    <v>       0.00000000       0.00000000       0.00000000 </v>
    <v>       0.50000000       0.50000000       0.00000000 </v>
    <v>       0.56198786       0.05423160       0.85422366 </v>
    <v>       0.45756749       0.97378078       0.17291468 </v>
    <v>       0.06191168       0.45172205       0.85014186 </v>
    <v>       0.95730104       0.58013323       0.13551397 </v>
    <v>       0.00000000       0.00000000       0.50000000 </v>
    <v>       0.50000000       0.50000000       0.50000000 </v>
   </varray>
  </structure>
  <varray name="forces" >
   <v>      -0.15019881      -0.22259047      -0.02125921 </v>
   <v>      -0.01522629      -0.11264593      -0.03903117 </v>
   <v>      -0.01142265       0.03296130      -0.13960495 </v>
   <v>      -0.02544830       0.03289444       0.05712468 </v>
   <v>       0.07703328      -0.02784880      -0.02138105 </v>
   <v>      -0.08296116      -0.06107559       0.04218716 </v>
   <v>       0.02376963       0.03262110      -0.00870832 </v>
   <v>      -0.07000215      -0.05756734      -0.09748763 </v>
   <v>      -0.05168957      -0.03375194       0.05872934 </v>
   <v>       0.07531359      -0.06731267      -0.00086336 </v>
   <v>      -0.10898277       0.01488020       0.03234032 </v>
   <v>      -0.04216797      -0.04581231       0.03897088 </v>
   <v>      -0.11440685       0.07806138      -0.01495655 </v>
   <v>       0.04092896      -0.04457344       0.09670981 </v>
   <v>      -0.06580821      -0.05580793      -0.13124399 </v>
   <v>       0.14774909       0.16589555       0.03135694 </v>
   <v>       0.03410179       0.00778632       0.00451037 </v>
   <v>       0.01645964      -0.01373368       0.00358340 </v>
   <v>       0.04159390       0.15137347       0.11755113 </v>
   <v>       0.17617546       0.02705211      -0.03269323 </v>
   <v>       0.01156393       0.13436754       0.04093653 </v>
   <v>       0.10272407       0.06792598      -0.01911295 </v>
   <v>      -0.04081209       0.02969619      -0.00049631 </v>
   <v>       0.03171348      -0.03279549       0.00283816 </v>
  </varray>
  <energy>
   <i name="e_fr_energy">   -296.48446947 </i>
   <i name="e_wo_entrp">   -296.48446947 </i>
   <i name="e_0_energy">   -296.48446947 </i>
  </energy>
  <time name="totalsc">   67.97   68.05</time>
 </calculation>
 <calculation>
  <scstep>
   <time name="total">    6.38    6.38</time>
   <energy>
    <i name="alphaZ">     58.39988875 </i>
    <i name="ewald">  -2302.58676111 </i>
    <i name="hartreedc">  -1176.32613788 </i>
    <i name="XCdc">    -71.08615731 </i>
    <i name="pawpsdc">   6577.16121680 </i>
    <i name="pawaedc">  -6427.14898863 </i>
    <i name="eentropy">     -0.00000000 </i>
    <i name="bandstr">   -515.50308748 </i>
    <i name="atom">   3560.73399828 </i>
    <i name="e_fr_energy">   -296.35602858 </i>
    <i name="e_wo_entrp">   -296.35602858 </i>
    <i name="e_0_energy">   -296.35602858 </i>
   </energy>
  </scstep>
  <scstep>
   <time name="total">    6.39    6.40</time>
   <energy>
    <i name="e_fr_energy">   -296.45389128 </i>
    <i name="e_wo_entrp">   -296.45389128 </i>
    <i name="e_0_energy">   -296.45389128 </i>
   </energy>
  </scstep>
  <scstep>
   <time name="total">    6.37    6.38</time>
   <energy>
    <i name="e_fr_energy">   -296.47578406 </i>
    <i name="e_wo_entrp">   -296.47578406 </i>
    <i name="e_0_energy">   -296.47578406 </i>
   </energy>
  </scstep>
  <scstep>
   <time name="total">    6.39    6.39</time>
   <energy>
    <i name="e_fr_energy">   -296.47888590 </i>
    <i name="e_wo_entrp">   -296.47888590 </i>
    <i name="e_0_energy">   -296.47888590 </i>
   </energy>
  </scstep>
  <scstep>
   <time name="total">    6.39    6.40</time>
   <energy>
    <i name="e_fr_energy">   -296.47945442 </i>
    <i name="e_wo_entrp">   -296.47945442 </i>
    <i name="e_0_energy">   -296.47945442 </i>
   </energy>
  </scstep>
  <scstep>
   <time name="total">    6.37    6.38</time>
   <energy>
    <i name="e_fr_energy">   -296.47958765 </i>
    <i name="e_wo_entrp">   -296.47958765 </i>
    <i name="e_0_energy">   -296.47958765 </i>
   </energy>
  </scstep>
  <scstep>
   <time name="total">    6.38    6.38</time>
   <energy>
    <i name="e_fr_energy">   -296.47962960 </i>
    <i name="e_wo_entrp">   -296.47962960 </i>
    <i name="e_0_energy">   -296.47962960 </i>
   </energy>
  </scstep>
  <scstep>
   <time name="total">    6.38    6.39</time>
   <energy>
    <i name="e_fr_energy">   -296.47964273 </i>
    <i name="e_wo_entrp">   -296.47964273 </i>
    <i name="e_0_energy">   -296.47964273 </i>
   </energy>
  </scstep>
  <scstep>
   <time name="total">    7.30    7.31</time>
   <energy>
    <i name="alphaZ">     58.39988875 </i>
    <i name="ewald">  -2302.58676111 </i>
    <i name="hartreedc">  -1177.08957214 </i>
    <i name="XCdc">    -71.05208974 </i>
    <i name="pawpsdc">   6551.43473259 </i>
    <i name="pawaedc">  -6401.42476841 </i>
    <i name="eentropy">     -0.00000000 </i>
    <i name="bandstr">   -514.89507426 </i>
    <i name="atom">   3560.73399828 </i>
    <i name="e_fr_energy">   -296.47964605 </i>
    <i name="e_wo_entrp">   -296.47964605 </i>
    <i name="e_0_energy">   -296.47964605 </i>
   </energy>
  </scstep>
  <structure>
   <crystal>
    <varray name="basis" >
     <v>       8.88210000       0.00000000       0.00000000 </v>
     <v>       0.00000000       8.88210000       0.00000000 </v>
     <v>       0.00000000       0.00000000       6.26980000 </v>
    </varray>
    <i name="volume">    494.63518323 </i>
    <varray name="rec_basis" >
     <v>       0.11258599       0.00000000       0.00000000 </v>
     <v>       0.00000000       0.11258599       0.00000000 </v>
     <v>       0.00000000       0.00000000       0.15949472 </v>
    </varray>
   </crystal>
   <varray name="positions" >
    <v>       0.47593085       0.96455956       0.96703670 </v>
    <v>       0.97599770       0.45988847       0.01821012 </v>
    <v>       0.50950775       0.05127743       0.26444320 </v>
    <v>       0.62087940       0.14097350       0.91675183 </v>
    <v>       0.56782436       0.04046276       0.69519846 </v>
    <v>       0.39141709       0.89766923       0.24885208 </v>
    <v>       0.41641286       0.87725169       0.88314135 </v>
    <v>       0.00897644       0.67937761       0.10593225 </v>
    <v>       0.12101259       0.54008262       0.79170020 </v>
    <v>       0.06787774       0.35464778       0.76657479 </v>
    <v>       0.89118301       0.57556110       0.26679884 </v>
    <v>       0.91618255       0.35931527       0.06575993 </v>
    <v>       0.27770000       0.22230000       0.50000000 </v>
    <v>       0.72230000       0.77770000       0.50000000 </v>
    <v>       0.77770000       0.27770000       0.50000000 </v>
    <v>       0.22230000       0.72230000       0.50000000 </v>
    <v>       0.00000000       0.00000000       0.00000000 </v>
    <v>       0.50000000       0.50000000       0.00000000 </v>
    <v>       0.56199122       0.05476725       0.85517964 </v>
    <v>       0.45840326       0.97377295       0.17244064 </v>
    <v>       0.06183934       0.45231759       0.85062349 </v>
    <v>       0.95781913       0.58021474       0.13527489 </v>
    <v>       0.00000000       0.00000000       0.50000000 </v>
    <v>       0.50000000       0.50000000       0.50000000 </v>
   </varray>
  </structure>
  <varray name="forces" >
   <v>       0.42175767       0.48056988      -0.05785107 </v>
   <v>      -0.03334386       0.23008086       0.18011263 </v>
   <v>       0.13756902       0.23203786      -0.00710048 </v>
   <v>       0.09838158       0.22893918       0.21389381 </v>
   <v>       0.08024527       0.02907040       0.20009352 </v>
   <v>       0.11312941       0.16349049      -0.06870952 </v>
   <v>      -0.15752430      -0.23951546      -0.17495722 </v>
   <v>       0.09088150       0.21323763      -0.16451953 </v>
   <v>       0.09839814       0.23819990      -0.01934092 </v>
   <v>       0.06914651       0.17412006       0.12656057 </v>
   <v>       0.03736952       0.04191141      -0.15651348 </v>
   <v>      -0.06648685      -0.11137412       0.03905514 </v>
   <v>      -0.11446099       0.07497313      -0.01813560 </v>
   <v>       0.03938128      -0.04474086       0.09793577 </v>
   <v>      -0.06318971      -0.05315401      -0.13041930 </v>
   <v>       0.15148574       0.16893916       0.02785221 </v>
   <v>       0.03567954       0.01051911       0.00360047 </v>
   <v>       0.01611708      -0.01162107       0.00339138 </v>
   <v>      -0.31296207      -0.39145987      -0.26946463 </v>
   <v>      -0.33790884      -0.54074122       0.16439476 </v>
   <v>      -0.02898776      -0.52848444      -0.22802497 </v>
   <v>      -0.26526477      -0.36175973       0.23571859 </v>
   <v>      -0.04250140       0.02901976      -0.00052833 </v>
   <v>       0.03308830      -0.03225804       0.00295623 </v>
  </varray>
  <energy>
   <i name="e_fr_energy">   -296.47964605 </i>
   <i name="e_wo_entrp">   -296.47964605 </i>
   <i name="e_0_energy">   -296.47964605 </i>
  </energy>
  <time name="totalsc">   61.66   61.72</time>
 </calculation>
 <calculation>
  <scstep>
   <time name="total">    6.39    6.39</time>
   <energy>
    <i name="alphaZ">     58.39988875 </i>
    <i name="ewald">  -2303.36566038 </i>
    <i name="hartreedc">  -1176.76155513 </i>
    <i name="XCdc">    -71.06629010 </i>
    <i name="pawpsdc">   6560.80225318 </i>
    <i name="pawaedc">  -6410.78910726 </i>
    <i name="eentropy">     -0.00000000 </i>
    <i name="bandstr">   -514.38741844 </i>
    <i name="atom">   3560.73399828 </i>
    <i name="e_fr_energy">   -296.43389111 </i>
    <i name="e_wo_entrp">   -296.43389111 </i>
    <i name="e_0_energy">   -296.43389111 </i>
   </energy>
  </scstep>
  <scstep>
   <time name="total">    6.39    6.40</time>
   <energy>
    <i name="e_fr_energy">   -296.47546287 </i>
    <i name="e_wo_entrp">   -296.47546287 </i>
    <i name="e_0_energy">   -296.47546287 </i>
   </energy>
  </scstep>
  <scstep>
   <time name="total">    6.38    6.39</time>
   <energy>
    <i name="e_fr_energy">   -296.48475121 </i>
    <i name="e_wo_entrp">   -296.48475121 </i>
    <i name="e_0_energy">   -296.48475121 </i>
   </energy>
  </scstep>
  <scstep>
   <time name="total">    6.38    6.39</time>
   <energy>
    <i name="e_fr_energy">   -296.48606802 </i>
    <i name="e_wo_entrp">   -296.48606802 </i>
    <i name="e_0_energy">   -296.48606802 </i>
   </energy>
  </scstep>
  <scstep>
   <time name="total">    6.39    6.40</time>
   <energy>
    <i name="e_fr_energy">   -296.48630885 </i>
    <i name="e_wo_entrp">   -296.48630885 </i>
    <i name="e_0_energy">   -296.48630885 </i>
   </energy>
  </scstep>
  <scstep>
   <time name="total">    6.37    6.38</time>
   <energy>
    <i name="e_fr_energy">   -296.48636423 </i>
    <i name="e_wo_entrp">   -296.48636423 </i>
    <i name="e_0_energy">   -296.48636423 </i>
   </energy>
  </scstep>
  <scstep>
   <time name="total">    6.37    6.37</time>
   <energy>
    <i name="e_fr_energy">   -296.48638159 </i>
    <i name="e_wo_entrp">   -296.48638159 </i>
    <i name="e_0_energy">   -296.48638159 </i>
   </energy>
  </scstep>
  <scstep>
   <time name="total">    6.37    6.38</time>
   <energy>
    <i name="e_fr_energy">   -296.48638715 </i>
    <i name="e_wo_entrp">   -296.48638715 </i>
    <i name="e_0_energy">   -296.48638715 </i>
   </energy>
  </scstep>
  <scstep>
   <time name="total">    7.32    7.33</time>
   <energy>
    <i name="alphaZ">     58.39988875 </i>
    <i name="ewald">  -2303.36566038 </i>
    <i name="hartreedc">  -1176.36598670 </i>
    <i name="XCdc">    -71.08247931 </i>
    <i name="pawpsdc">   6548.65960067 </i>
    <i name="pawaedc">  -6398.64791554 </i>
    <i name="eentropy">     -0.00000000 </i>
    <i name="bandstr">   -514.81783429 </i>
    <i name="atom">   3560.73399828 </i>
    <i name="e_fr_energy">   -296.48638852 </i>
    <i name="e_wo_entrp">   -296.48638852 </i>
    <i name="e_0_energy">   -296.48638852 </i>
   </energy>
  </scstep>
  <structure>
   <crystal>
    <varray name="basis" >
     <v>       8.88210000       0.00000000       0.00000000 </v>
     <v>       0.00000000       8.88210000       0.00000000 </v>
     <v>       0.00000000       0.00000000       6.26980000 </v>
    </varray>
    <i name="volume">    494.63518323 </i>
    <varray name="rec_basis" >
     <v>       0.11258599       0.00000000       0.00000000 </v>
     <v>       0.00000000       0.11258599       0.00000000 </v>
     <v>       0.00000000       0.00000000       0.15949472 </v>
    </varray>
   </crystal>
   <varray name="positions" >
    <v>       0.47629217       0.96510893       0.96709444 </v>
    <v>       0.97605231       0.46015291       0.01835748 </v>
    <v>       0.50961802       0.05127181       0.26520699 </v>
    <v>       0.62103404       0.14097625       0.91661422 </v>
    <v>       0.56755831       0.04050357       0.69502476 </v>
    <v>       0.39157440       0.89772681       0.24873249 </v>
    <v>       0.41628484       0.87706610       0.88309294 </v>
    <v>       0.00927800       0.67967212       0.10632502 </v>
    <v>       0.12123352       0.54030044       0.79140199 </v>
    <v>       0.06761362       0.35471417       0.76649896 </v>
    <v>       0.89143094       0.57547475       0.26684084 </v>
    <v>       0.91623204       0.35932485       0.06564345 </v>
    <v>       0.27770000       0.22230000       0.50000000 </v>
    <v>       0.72230000       0.77770000       0.50000000 </v>
    <v>       0.77770000       0.27770000       0.50000000 </v>
    <v>       0.22230000       0.72230000       0.50000000 </v>
    <v>       0.00000000       0.00000000       0.00000000 </v>
    <v>       0.50000000       0.50000000       0.00000000 </v>
    <v>       0.56198903       0.05441817       0.85455663 </v>
    <v>       0.45785859       0.97377805       0.17274957 </v>
    <v>       0.06188648       0.45192948       0.85030961 </v>
    <v>       0.95748149       0.58016162       0.13543070 </v>
    <v>       0.00000000       0.00000000       0.50000000 </v>
    <v>       0.50000000       0.50000000       0.50000000 </v>
   </varray>
  </structure>
  <varray name="forces" >
   <v>       0.04869260       0.02085741      -0.03704780 </v>
   <v>      -0.02141516       0.00708383       0.03755511 </v>
   <v>       0.04026769       0.10142901      -0.09403420 </v>
   <v>       0.01676049       0.10001736       0.11136110 </v>
   <v>       0.07822592      -0.00839388       0.05630406 </v>
   <v>      -0.01418112       0.01876912       0.00262919 </v>
   <v>      -0.03800314      -0.06018838      -0.06505097 </v>
   <v>      -0.01435878       0.03518945      -0.12033499 </v>
   <v>      -0.00032306       0.05987599       0.03228694 </v>
   <v>       0.07335984       0.01785446       0.04431107 </v>
   <v>      -0.05793933       0.02427764      -0.03422106 </v>
   <v>      -0.05070392      -0.06859281       0.03905482 </v>
   <v>      -0.11428725       0.07739914      -0.01614254 </v>
   <v>       0.04051592      -0.04449386       0.09708011 </v>
   <v>      -0.06498957      -0.05487214      -0.13104479 </v>
   <v>       0.14897643       0.16668486       0.02990833 </v>
   <v>       0.03460417       0.00850515       0.00433528 </v>
   <v>       0.01599964      -0.01289927       0.00366610 </v>
   <v>      -0.08186208      -0.03666567      -0.01617511 </v>
   <v>      -0.00317008      -0.17173451       0.03749717 </v>
   <v>      -0.00192742      -0.09661427      -0.05416260 </v>
   <v>      -0.02468878      -0.08013324       0.06999920 </v>
   <v>      -0.04153056       0.02930899      -0.00058637 </v>
   <v>       0.03197756      -0.03266437       0.00281194 </v>
  </varray>
  <energy>
   <i name="e_fr_energy">   -296.48638852 </i>
   <i name="e_wo_entrp">   -296.48638852 </i>
   <i name="e_0_energy">   -296.48638852 </i>
  </energy>
  <time name="totalsc">   61.68   61.75</time>
 </calculation>
 <calculation>
  <scstep>
   <time name="total">    6.39    6.39</time>
   <energy>
    <i name="alphaZ">     58.39988875 </i>
    <i name="ewald">  -2303.62499932 </i>
    <i name="hartreedc">  -1176.23896375 </i>
    <i name="XCdc">    -71.09293268 </i>
    <i name="pawpsdc">   6558.22252499 </i>
    <i name="pawaedc">  -6408.21020290 </i>
    <i name="eentropy">     -0.00000000 </i>
    <i name="bandstr">   -514.63761603 </i>
    <i name="atom">   3560.73399828 </i>
    <i name="e_fr_energy">   -296.44830266 </i>
    <i name="e_wo_entrp">   -296.44830266 </i>
    <i name="e_0_energy">   -296.44830266 </i>
   </energy>
  </scstep>
  <scstep>
   <time name="total">    6.38    6.38</time>
   <energy>
    <i name="e_fr_energy">   -296.48367239 </i>
    <i name="e_wo_entrp">   -296.48367239 </i>
    <i name="e_0_energy">   -296.48367239 </i>
   </energy>
  </scstep>
  <scstep>
   <time name="total">    6.36    6.37</time>
   <energy>
    <i name="e_fr_energy">   -296.48990023 </i>
    <i name="e_wo_entrp">   -296.48990023 </i>
    <i name="e_0_energy">   -296.48990023 </i>
   </energy>
  </scstep>
  <scstep>
   <time name="total">    6.38    6.38</time>
   <energy>
    <i name="e_fr_energy">   -296.49079676 </i>
    <i name="e_wo_entrp">   -296.49079676 </i>
    <i name="e_0_energy">   -296.49079676 </i>
   </energy>
  </scstep>
  <scstep>
   <time name="total">    6.37    6.38</time>
   <energy>
    <i name="e_fr_energy">   -296.49098978 </i>
    <i name="e_wo_entrp">   -296.49098978 </i>
    <i name="e_0_energy">   -296.49098978 </i>
   </energy>
  </scstep>
  <scstep>
   <time name="total">    6.38    6.39</time>
   <energy>
    <i name="e_fr_energy">   -296.49104188 </i>
    <i name="e_wo_entrp">   -296.49104188 </i>
    <i name="e_0_energy">   -296.49104188 </i>
   </energy>
  </scstep>
  <scstep>
   <time name="total">    6.38    6.38</time>
   <energy>
    <i name="e_fr_energy">   -296.49105915 </i>
    <i name="e_wo_entrp">   -296.49105915 </i>
    <i name="e_0_energy">   -296.49105915 </i>
   </energy>
  </scstep>
  <scstep>
   <time name="total">    6.39    6.40</time>
   <energy>
    <i name="e_fr_energy">   -296.49106416 </i>
    <i name="e_wo_entrp">   -296.49106416 </i>
    <i name="e_0_energy">   -296.49106416 </i>
   </energy>
  </scstep>
  <scstep>
   <time name="total">    7.31    7.32</time>
   <energy>
    <i name="alphaZ">     58.39988875 </i>
    <i name="ewald">  -2303.62499932 </i>
    <i name="hartreedc">  -1176.21948047 </i>
    <i name="XCdc">    -71.09766634 </i>
    <i name="pawpsdc">   6546.76719926 </i>
    <i name="pawaedc">  -6396.75439192 </i>
    <i name="eentropy">     -0.00000000 </i>
    <i name="bandstr">   -514.69561349 </i>
[...]
       <r>   -4.7326    1.0000 </r>
       <r>   -2.1529    1.0000 </r>
       <r>   -1.7176    1.0000 </r>
       <r>   -1.5119    1.0000 </r>
       <r>   -1.4799    1.0000 </r>
       <r>   -1.0377    1.0000 </r>
       <r>   -0.9584    1.0000 </r>
       <r>   -0.9465    1.0000 </r>
       <r>   -0.7139    1.0000 </r>
       <r>   -0.5636    1.0000 </r>
       <r>   -0.4551    1.0000 </r>
       <r>   -0.3690    1.0000 </r>
       <r>   -0.2960    1.0000 </r>
       <r>   -0.1532    1.0000 </r>
       <r>   -0.1344    1.0000 </r>
       <r>   -0.0177    1.0000 </r>
       <r>    0.0729    1.0000 </r>
       <r>    0.3251    1.0000 </r>
       <r>    0.4595    1.0000 </r>
       <r>    1.0253    1.0000 </r>
       <r>    1.4663    1.0000 </r>
       <r>    3.1043    0.0000 </r>
       <r>    3.1764    0.0000 </r>
       <r>    3.3023    0.0000 </r>
       <r>    4.2008    0.0000 </r>
       <r>    4.7380    0.0000 </r>
       <r>    4.8021    0.0000 </r>
       <r>    5.5005    0.0000 </r>
       <r>    6.2838    0.0000 </r>
       <r>    6.8144    0.0000 </r>
       <r>    7.0442    0.0000 </r>
       <r>    7.3085    0.0000 </r>
       <r>    7.4161    0.0000 </r>
       <r>    7.5335    0.0000 </r>
       <r>    7.7897    0.0000 </r>
       <r>    8.0353    0.0000 </r>
       <r>    8.2103    0.0000 </r>
       <r>    8.3040    0.0000 </r>
       <r>    8.3722    0.0000 </r>
       <r>    8.6012    0.0000 </r>
       <r>    8.6583    0.0000 </r>
      </set>
     </set>
    </set>
   </array>
  </eigenvalues>
  <separator name="orbital magnetization" >
   <v name="MAGDIPOLOUT">      0.00000000      0.00000000      0.00000000</v>
  </separator>
  <dos>
   <i name="efermi">      2.46404764 </i>
   <total>
    <array>
     <dimension dim="1">gridpoints</dimension>
     <dimension dim="2">spin</dimension>
     <field>energy</field>
     <field>total</field>
     <field>integrated</field>
     <set>
      <set comment="spin 1">
       <r>   -21.7589     0.0000     0.0000 </r>
       <r>   -21.6522     0.0000     0.0000 </r>
       <r>   -21.5455     0.0000     0.0000 </r>
       <r>   -21.4388     0.0000     0.0000 </r>
       <r>   -21.3322     0.0000     0.0000 </r>
       <r>   -21.2255     0.0000     0.0000 </r>
       <r>   -21.1188     0.0000     0.0000 </r>
       <r>   -21.0121     0.0000     0.0000 </r>
       <r>   -20.9055     0.0000     0.0000 </r>
       <r>   -20.7988     0.0000     0.0000 </r>
       <r>   -20.6921     0.0000     0.0000 </r>
       <r>   -20.5854     0.0000     0.0000 </r>
       <r>   -20.4787     0.0000     0.0000 </r>
       <r>   -20.3721     0.6286     0.0671 </r>
       <r>   -20.2654    28.7529     3.1344 </r>
       <r>   -20.1587     8.1100     3.9996 </r>
       <r>   -20.0520     0.0039     4.0000 </r>
       <r>   -19.9453     0.0000     4.0000 </r>
       <r>   -19.8387     0.0000     4.0000 </r>
       <r>   -19.7320     0.0000     4.0000 </r>
       <r>   -19.6253     0.0000     4.0000 </r>
       <r>   -19.5186     0.0000     4.0000 </r>
       <r>   -19.4119     0.0000     4.0000 </r>
       <r>   -19.3053     0.0000     4.0000 </r>
       <r>   -19.1986     0.0000     4.0000 </r>
       <r>   -19.0919     0.0000     4.0000 </r>
       <r>   -18.9852     0.0000     4.0000 </r>
       <r>   -18.8785     0.0000     4.0000 </r>
       <r>   -18.7719     0.0000     4.0000 </r>
       <r>   -18.6652     0.0000     4.0000 </r>
       <r>   -18.5585     0.0000     4.0000 </r>
       <r>   -18.4518     0.0000     4.0000 </r>
       <r>   -18.3451     0.0000     4.0000 </r>
       <r>   -18.2385     0.0000     4.0000 </r>
       <r>   -18.1318     0.0000     4.0000 </r>
       <r>   -18.0251     0.2842     4.0303 </r>
       <r>   -17.9184    25.1395     6.7122 </r>
       <r>   -17.8117    12.0574     7.9985 </r>
       <r>   -17.7051     0.0143     8.0000 </r>
       <r>   -17.5984     0.0000     8.0000 </r>
       <r>   -17.4917     0.0000     8.0000 </r>
       <r>   -17.3850     0.0000     8.0000 </r>
       <r>   -17.2783     0.0000     8.0000 </r>
       <r>   -17.1717     0.0000     8.0000 </r>
       <r>   -17.0650     0.0000     8.0000 </r>
       <r>   -16.9583     0.0000     8.0000 </r>
       <r>   -16.8516     0.0000     8.0000 </r>
       <r>   -16.7449     0.0000     8.0000 </r>
       <r>   -16.6383     0.0000     8.0000 </r>
       <r>   -16.5316     0.0000     8.0000 </r>
       <r>   -16.4249     0.0000     8.0000 </r>
       <r>   -16.3182     0.0000     8.0000 </r>
       <r>   -16.2115     0.0000     8.0000 </r>
       <r>   -16.1049     0.0000     8.0000 </r>
       <r>   -15.9982     0.0000     8.0000 </r>
       <r>   -15.8915     0.0000     8.0000 </r>
       <r>   -15.7848     0.0000     8.0000 </r>
       <r>   -15.6782     0.0000     8.0000 </r>
       <r>   -15.5715     0.0000     8.0000 </r>
       <r>   -15.4648     0.0000     8.0000 </r>
       <r>   -15.3581     0.0000     8.0000 </r>
       <r>   -15.2514     0.0000     8.0000 </r>
       <r>   -15.1448     0.0000     8.0000 </r>
       <r>   -15.0381     0.0000     8.0000 </r>
       <r>   -14.9314     0.0000     8.0000 </r>
       <r>   -14.8247     0.0000     8.0000 </r>
       <r>   -14.7180     0.0000     8.0000 </r>
       <r>   -14.6114     0.0000     8.0000 </r>
       <r>   -14.5047     0.0000     8.0000 </r>
       <r>   -14.3980     0.0000     8.0000 </r>
       <r>   -14.2913     0.0000     8.0000 </r>
       <r>   -14.1846     0.0000     8.0000 </r>
       <r>   -14.0780     0.0000     8.0000 </r>
       <r>   -13.9713     0.0000     8.0000 </r>
       <r>   -13.8646     0.0000     8.0000 </r>
       <r>   -13.7579     0.0000     8.0000 </r>
       <r>   -13.6512     0.0000     8.0000 </r>
       <r>   -13.5446     0.0000     8.0000 </r>
       <r>   -13.4379     0.0000     8.0000 </r>
       <r>   -13.3312     0.0000     8.0000 </r>
       <r>   -13.2245     0.0000     8.0000 </r>
       <r>   -13.1178     0.0000     8.0000 </r>
       <r>   -13.0112     0.0000     8.0000 </r>
       <r>   -12.9045     0.0000     8.0000 </r>
       <r>   -12.7978     0.0000     8.0000 </r>
       <r>   -12.6911     0.0000     8.0000 </r>
       <r>   -12.5844     0.0000     8.0000 </r>
       <r>   -12.4778     0.0000     8.0000 </r>
       <r>   -12.3711     0.0000     8.0000 </r>
       <r>   -12.2644     0.0000     8.0000 </r>
       <r>   -12.1577     0.0000     8.0000 </r>
       <r>   -12.0510     0.0000     8.0000 </r>
       <r>   -11.9444     0.0000     8.0000 </r>
       <r>   -11.8377     0.0000     8.0000 </r>
       <r>   -11.7310     0.0003     8.0000 </r>
       <r>   -11.6243     1.2542     8.1338 </r>
       <r>   -11.5176    23.1828    10.6070 </r>
       <r>   -11.4110    12.9875    11.9925 </r>
       <r>   -11.3043     0.0720    12.0001 </r>
       <r>   -11.1976     1.1472    12.1225 </r>
       <r>   -11.0909    10.2712    13.2183 </r>
       <r>   -10.9842    14.9179    14.8097 </r>
       <r>   -10.8776    12.9596    16.1922 </r>
       <r>   -10.7709    25.0366    18.8631 </r>
       <r>   -10.6642    34.3726    22.5300 </r>
       <r>   -10.5575    13.4782    23.9678 </r>
       <r>   -10.4509     0.3017    24.0000 </r>
       <r>   -10.3442     0.0000    24.0000 </r>
       <r>   -10.2375     0.0000    24.0000 </r>
       <r>   -10.1308     0.0000    24.0000 </r>
       <r>   -10.0241     0.0000    24.0000 </r>
       <r>    -9.9175     0.0000    24.0000 </r>
       <r>    -9.8108     0.0000    24.0000 </r>
       <r>    -9.7041     0.0000    24.0000 </r>
       <r>    -9.5974     0.0000    24.0000 </r>
       <r>    -9.4907     0.0165    24.0018 </r>
       <r>    -9.3841     9.3907    25.0036 </r>
       <r>    -9.2774    27.1432    27.8992 </r>
       <r>    -9.1707     0.9450    28.0000 </r>
       <r>    -9.0640     0.0000    28.0000 </r>
       <r>    -8.9573     0.0000    28.0000 </r>
       <r>    -8.8507     0.0000    28.0000 </r>
       <r>    -8.7440     0.0589    28.0063 </r>
       <r>    -8.6373    16.6747    29.7851 </r>
       <r>    -8.5306    20.6056    31.9833 </r>
       <r>    -8.4239     0.1562    32.0000 </r>
       <r>    -8.3173     0.0000    32.0000 </r>
       <r>    -8.2106     0.0000    32.0000 </r>
       <r>    -8.1039     0.0000    32.0000 </r>
       <r>    -7.9972     0.0000    32.0000 </r>
       <r>    -7.8905     0.0000    32.0000 </r>
       <r>    -7.7839     0.0000    32.0000 </r>
       <r>    -7.6772     0.0000    32.0000 </r>
       <r>    -7.5705     0.0000    32.0000 </r>
       <r>    -7.4638     0.0000    32.0000 </r>
       <r>    -7.3571     0.0000    32.0000 </r>
       <r>    -7.2505     0.0000    32.0000 </r>
       <r>    -7.1438     0.0000    32.0000 </r>
       <r>    -7.0371     0.0000    32.0000 </r>
       <r>    -6.9304     0.4643    32.0495 </r>
       <r>    -6.8237    26.9391    34.9234 </r>
       <r>    -6.7171    10.0823    35.9990 </r>
       <r>    -6.6104     0.0097    36.0000 </r>
       <r>    -6.5037     0.0000    36.0000 </r>
       <r>    -6.3970     0.0021    36.0002 </r>
       <r>    -6.2903     0.3328    36.0357 </r>
       <r>    -6.1837     0.1857    36.0555 </r>
       <r>    -6.0770     0.3174    36.0894 </r>
       <r>    -5.9703     2.5595    36.3625 </r>
       <r>    -5.8636     1.2690    36.4978 </r>
       <r>    -5.7569     2.4645    36.7607 </r>
       <r>    -5.6503     2.8399    37.0637 </r>
       <r>    -5.5436     4.3258    37.5252 </r>
       <r>    -5.4369     3.1427    37.8604 </r>
       <r>    -5.3302     9.8066    38.9066 </r>
       <r>    -5.2236    30.0313    42.1103 </r>
       <r>    -5.1169     7.0908    42.8668 </r>
       <r>    -5.0102     4.4522    43.3417 </r>
       <r>    -4.9035     0.4412    43.3888 </r>
       <r>    -4.7968     2.8934    43.6975 </r>
       <r>    -4.6902    33.1128    47.2299 </r>
       <r>    -4.5835     6.4778    47.9210 </r>
       <r>    -4.4768     0.2200    47.9444 </r>
       <r>    -4.3701     0.0000    47.9444 </r>
       <r>    -4.2634     0.0000    47.9444 </r>
       <r>    -4.1568     0.0043    47.9449 </r>
       <r>    -4.0501     0.3771    47.9851 </r>
       <r>    -3.9434     0.1393    48.0000 </r>
       <r>    -3.8367     0.0001    48.0000 </r>
       <r>    -3.7300     0.0000    48.0000 </r>
       <r>    -3.6234     0.0000    48.0000 </r>
       <r>    -3.5167     0.0000    48.0000 </r>
       <r>    -3.4100     0.0000    48.0000 </r>
       <r>    -3.3033     0.0000    48.0000 </r>
       <r>    -3.1966     0.0000    48.0000 </r>
       <r>    -3.0900     0.0000    48.0000 </r>
       <r>    -2.9833     0.0000    48.0000 </r>
       <r>    -2.8766     0.0000    48.0000 </r>
       <r>    -2.7699     0.0000    48.0000 </r>
       <r>    -2.6632     0.0000    48.0000 </r>
       <r>    -2.5566     0.0112    48.0012 </r>
       <r>    -2.4499     1.3117    48.1411 </r>
       <r>    -2.3432     6.9081    48.8781 </r>
       <r>    -2.2365     9.4049    49.8814 </r>
       <r>    -2.1298     3.8581    50.2930 </r>
       <r>    -2.0232     3.2465    50.6393 </r>
       <r>    -1.9165     6.3591    51.3177 </r>
       <r>    -1.8098     8.9930    52.2771 </r>
       <r>    -1.7031     4.5675    52.7643 </r>
       <r>    -1.5964     3.4853    53.1361 </r>
       <r>    -1.4898    16.3030    54.8753 </r>
       <r>    -1.3831    23.1340    57.3433 </r>
       <r>    -1.2764    11.4961    58.5697 </r>
       <r>    -1.1697     5.2195    59.1265 </r>
       <r>    -1.0630     6.4842    59.8182 </r>
       <r>    -0.9564    13.2087    61.2273 </r>
       <r>    -0.8497    16.0732    62.9420 </r>
       <r>    -0.7430     9.9465    64.0031 </r>
       <r>    -0.6363     9.7609    65.0444 </r>
       <r>    -0.5296    13.2274    66.4554 </r>
       <r>    -0.4230    12.2411    67.7613 </r>
       <r>    -0.3163    19.2182    69.8115 </r>
       <r>    -0.2096    17.6999    71.6997 </r>
       <r>    -0.1029    25.7526    74.4470 </r>
       <r>     0.0037    24.0086    77.0082 </r>
       <r>     0.1104    23.1472    79.4776 </r>
       <r>     0.2171    24.0646    82.0448 </r>
       <r>     0.3238    12.8345    83.4140 </r>
       <r>     0.4305    13.6582    84.8710 </r>
       <r>     0.5371     6.1288    85.5248 </r>
       <r>     0.6438     6.1037    86.1760 </r>
       <r>     0.7505     2.6669    86.4605 </r>
       <r>     0.8572     5.5442    87.0519 </r>
       <r>     0.9639     0.6406    87.1203 </r>
       <r>     1.0705     1.7887    87.3111 </r>
       <r>     1.1772     0.2299    87.3356 </r>
       <r>     1.2839     1.5569    87.5017 </r>
       <r>     1.3906     0.7220    87.5787 </r>
       <r>     1.4973     2.3253    87.8268 </r>
       <r>     1.6039     1.0975    87.9439 </r>
       <r>     1.7106     0.0054    87.9444 </r>
       <r>     1.8173     0.0000    87.9444 </r>
       <r>     1.9240     0.0000    87.9444 </r>
       <r>     2.0307     0.0001    87.9445 </r>
       <r>     2.1373     0.1469    87.9601 </r>
       <r>     2.2440     0.3700    87.9996 </r>
       <r>     2.3507     0.0038    88.0000 </r>
       <r>     2.4574     0.0000    88.0000 </r>
       <r>     2.5641     0.0000    88.0000 </r>
       <r>     2.6707     0.0001    88.0000 </r>
       <r>     2.7774     0.1646    88.0176 </r>
       <r>     2.8841     0.9460    88.1185 </r>
       <r>     2.9908     0.6704    88.1900 </r>
       <r>     3.0975     4.3563    88.6548 </r>
       <r>     3.2041     3.4016    89.0176 </r>
       <r>     3.3108     3.4077    89.3812 </r>
       <r>     3.4175     5.8093    90.0009 </r>
       <r>     3.5242     2.0796    90.2228 </r>
       <r>     3.6309     1.0330    90.3330 </r>
       <r>     3.7375     0.0067    90.3337 </r>
       <r>     3.8442     1.0644    90.4472 </r>
       <r>     3.9509     1.5023    90.6075 </r>
       <r>     4.0576     3.5419    90.9853 </r>
       <r>     4.1643     3.1132    91.3174 </r>
       <r>     4.2709     8.0650    92.1778 </r>
       <r>     4.3776     5.1833    92.7308 </r>
       <r>     4.4843     2.3642    92.9830 </r>
       <r>     4.5910     1.7272    93.1672 </r>
       <r>     4.6977    11.9330    94.4403 </r>
       <r>     4.8043    18.0048    96.3610 </r>
       <r>     4.9110     6.8150    97.0880 </r>
       <r>     5.0177     5.3038    97.6538 </r>
       <r>     5.1244     5.0885    98.1967 </r>
       <r>     5.2310     6.3798    98.8773 </r>
       <r>     5.3377     0.8970    98.9730 </r>
       <r>     5.4444     0.3733    99.0128 </r>
       <r>     5.5511     2.6535    99.2958 </r>
       <r>     5.6578     7.0644   100.0495 </r>
       <r>     5.7644     8.7085   100.9785 </r>
       <r>     5.8711     5.9135   101.6093 </r>
       <r>     5.9778     1.1227   101.7291 </r>
       <r>     6.0845     3.1259   102.0626 </r>
       <r>     6.1912     2.0324   102.2794 </r>
       <r>     6.2978     3.0393   102.6036 </r>
       <r>     6.4045     6.3425   103.2802 </r>
       <r>     6.5112     9.9636   104.3431 </r>
       <r>     6.6179     9.6878   105.3766 </r>
       <r>     6.7246     5.8353   105.9991 </r>
       <r>     6.8312    10.5463   107.1242 </r>
       <r>     6.9379     8.8500   108.0683 </r>
       <r>     7.0446     9.7183   109.1051 </r>
       <r>     7.1513    10.2281   110.1962 </r>
       <r>     7.2580     9.4757   111.2071 </r>
       <r>     7.3646    13.0504   112.5993 </r>
       <r>     7.4713    12.6421   113.9479 </r>
       <r>     7.5780    13.3921   115.3766 </r>
       <r>     7.6847    11.4631   116.5995 </r>
       <r>     7.7914    13.7362   118.0649 </r>
       <r>     7.8980    14.8021   119.6439 </r>
       <r>     8.0047    13.8721   121.1238 </r>
       <r>     8.1114    12.2712   122.4329 </r>
       <r>     8.2181    11.8711   123.6993 </r>
       <r>     8.3248     9.1589   124.6764 </r>
       <r>     8.4314    11.0093   125.8508 </r>
       <r>     8.5381     7.1680   126.6155 </r>
       <r>     8.6448     7.9082   127.4592 </r>
       <r>     8.7515     4.0178   127.8878 </r>
       <r>     8.8582     1.0368   127.9984 </r>
       <r>     8.9648     0.0151   128.0000 </r>
       <r>     9.0715     0.0000   128.0000 </r>
       <r>     9.1782     0.0000   128.0000 </r>
       <r>     9.2849     0.0000   128.0000 </r>
       <r>     9.3916     0.0000   128.0000 </r>
       <r>     9.4982     0.0000   128.0000 </r>
       <r>     9.6049     0.0000   128.0000 </r>
       <r>     9.7116     0.0000   128.0000 </r>
       <r>     9.8183     0.0000   128.0000 </r>
       <r>     9.9250     0.0000   128.0000 </r>
       <r>    10.0316     0.0000   128.0000 </r>
       <r>    10.1383     0.0000   128.0000 </r>
       <r>    10.2450     0.0000   128.0000 </r>
      </set>
     </set>
    </array>
   </total>
  </dos>
 </calculation>
 <structure name="finalpos" >
  <crystal>
   <varray name="basis" >
    <v>       8.88210000       0.00000000       0.00000000 </v>
    <v>       0.00000000       8.88210000       0.00000000 </v>
    <v>       0.00000000       0.00000000       6.26980000 </v>
   </varray>
   <i name="volume">    494.63518323 </i>
   <varray name="rec_basis" >
    <v>       0.11258599       0.00000000       0.00000000 </v>
    <v>       0.00000000       0.11258599       0.00000000 </v>
    <v>       0.00000000       0.00000000       0.15949472 </v>
   </varray>
  </crystal>
  <varray name="positions" >
   <v>       0.51707794       0.96206300       0.96758016 </v>
   <v>       0.97193638       0.46237146       0.02108436 </v>
   <v>       0.37445817       0.00778529       0.21447212 </v>
   <v>       0.53829038       0.18859092       0.01775890 </v>
   <v>       0.64699157       0.11411337       0.81542468 </v>
   <v>       0.38112038       0.82219126       0.12991660 </v>
   <v>       0.55793314       0.87128359       0.86700977 </v>
   <v>      -0.02932532       0.69017037      -0.02789386 </v>
   <v>       0.14089051       0.49962711       0.80736312 </v>
   <v>       0.11427668       0.31449439       0.88675215 </v>
   <v>       0.83759702       0.62173631       0.14767546 </v>
   <v>       0.91539716       0.37388394       0.10969840 </v>
   <v>       0.27770000       0.22230000       0.50000000 </v>
   <v>       0.72230000       0.77770000       0.50000000 </v>
   <v>       0.77770000       0.27770000       0.50000000 </v>
   <v>       0.22230000       0.72230000       0.50000000 </v>
   <v>       0.00000000       0.00000000       0.00000000 </v>
   <v>       0.50000000       0.50000000       0.00000000 </v>
   <v>       0.57301322       0.09623734       0.93602928 </v>
   <v>       0.41557288       0.92980777       0.11088943 </v>
   <v>       0.08563050       0.42423553       0.90068080 </v>
   <v>       0.92229739       0.59986600       0.04391024 </v>
   <v>       0.00000000       0.00000000       0.50000000 </v>
   <v>       0.50000000       0.50000000       0.50000000 </v>
  </varray>
  <varray name="selective"  type="logical" >
   <v type="logical" >  T  T  T </v>
   <v type="logical" >  T  T  T </v>
   <v type="logical" >  T  T  T </v>
   <v type="logical" >  T  T  T </v>
   <v type="logical" >  T  T  T </v>
   <v type="logical" >  T  T  T </v>
   <v type="logical" >  T  T  T </v>
   <v type="logical" >  T  T  T </v>
   <v type="logical" >  T  T  T </v>
   <v type="logical" >  T  T  T </v>
   <v type="logical" >  T  T  T </v>
   <v type="logical" >  T  T  T </v>
   <v type="logical" >  F  F  F </v>
   <v type="logical" >  F  F  F </v>
   <v type="logical" >  F  F  F </v>
   <v type="logical" >  F  F  F </v>
   <v type="logical" >  F  F  F </v>
   <v type="logical" >  F  F  F </v>
   <v type="logical" >  T  T  T </v>
   <v type="logical" >  T  T  T </v>
   <v type="logical" >  T  T  T </v>
   <v type="logical" >  T  T  T </v>
   <v type="logical" >  F  F  F </v>
   <v type="logical" >  F  F  F </v>
  </varray>
  <nose>
   <v>      -3.00000000       0.00000000       0.00010000       0.00010000 </v>
  </nose>
 </structure>
</modeling>
