tetra-FASnI3                            
           1
     8.882100    0.000000    0.000000
     0.000000    8.882100    0.000000
     0.000000    0.000000    6.269800
   C    H    I    N    Sn
     2    10     6     4     2
Direct configuration=     1
   0.47649372  0.96546986  0.96718085
   0.97649372  0.46048546  0.01834169
   0.51060727  0.05231799  0.26813926
   0.62217999  0.14221497  0.91757696
   0.56690027  0.04008199  0.69120017
   0.39059061  0.89622441  0.24954096
   0.41535953  0.87566886  0.88192826
   0.01060727  0.68136268  0.10667866
   0.12217999  0.54170845  0.79049591
   0.06690027  0.35290697  0.76513896
   0.89059061  0.57491657  0.26948097
   0.91535953  0.35777668  0.06610284
   0.27770000  0.22230000  0.50000000
   0.72230000  0.77770000  0.50000000
   0.77770000  0.27770000  0.50000000
   0.22230000  0.72230000  0.50000000
   0.00000000  0.00000000  0.00000000
   0.50000000  0.50000000  0.00000000
   0.56250941  0.05431909  0.85402249
   0.45724151  0.97482215  0.17351646
   0.06250941  0.45224215  0.84948904
   0.95724151  0.58101753  0.13493429
   0.00000000  0.00000000  0.50000000
   0.50000000  0.50000000  0.50000000
Direct configuration=     2
   0.47516501  0.96365521  0.96634756
   0.97533038  0.45865629  0.01856807
   0.50924887  0.05068375  0.26461862
   0.62049004  0.14010942  0.91598327
   0.56738207  0.04077755  0.69815642
   0.39265560  0.89896491  0.24752261
   0.41686222  0.87792092  0.88395253
   0.00916047  0.67928554  0.10649997
   0.12119103  0.54021739  0.79142519
   0.06751491  0.35655305  0.76789349
   0.89279770  0.57561227  0.26428863
   0.91692263  0.36043579  0.06511173
   0.27770000  0.22230000  0.50000000
   0.72230000  0.77770000  0.50000000
   0.77770000  0.27770000  0.50000000
   0.22230000  0.72230000  0.50000000
   0.00000000  0.00000000  0.00000000
   0.50000000  0.50000000  0.00000000
   0.56346607  0.05569328  0.85055488
   0.45687921  0.97307650  0.17594759
   0.06235148  0.44988418  0.84792917
   0.95605157  0.58120746  0.13908785
   0.00000000  0.00000000  0.50000000
   0.50000000  0.50000000  0.50000000
Direct configuration=     3
   0.47612541  0.96496686  0.96694987
   0.97617125  0.45997844  0.01840444
   0.51023074  0.05186500  0.26716338
   0.62171155  0.14163134  0.91713521
   0.56703381  0.04027479  0.69312836
   0.39116300  0.89698404  0.24898149
   0.41577605  0.87629311  0.88248936
   0.01020624  0.68078693  0.10662913
   0.12190586  0.54129514  0.79075350
   0.06707064  0.35391762  0.76590248
   0.89120239  0.57510941  0.26804171
   0.91579280  0.35851375  0.06582812
   0.27770000  0.22230000  0.50000000
   0.72230000  0.77770000  0.50000000
   0.77770000  0.27770000  0.50000000
   0.22230000  0.72230000  0.50000000
   0.00000000  0.00000000  0.00000000
   0.50000000  0.50000000  0.00000000
   0.56277459  0.05470000  0.85306131
   0.45714109  0.97433828  0.17419034
   0.06246564  0.45158855  0.84905666
   0.95691167  0.58107018  0.13608561
   0.00000000  0.00000000  0.50000000
   0.50000000  0.50000000  0.50000000
Direct configuration=     4
   0.47679696  0.96577989  0.96727723
   0.97600377  0.46056777  0.01846377
   0.50919731  0.05075245  0.26427431
   0.62060148  0.14041161  0.91602576
   0.56774722  0.04074241  0.69649398
   0.39208760  0.89842756  0.24839755
   0.41659781  0.87755050  0.88356743
   0.00877480  0.67900031  0.10645337
   0.12087156  0.53965617  0.79166624
   0.06782049  0.35547026  0.76693994
   0.89187616  0.57570506  0.26584267
   0.91666184  0.36003689  0.06536734
   0.27770000  0.22230000  0.50000000
   0.72230000  0.77770000  0.50000000
   0.77770000  0.27770000  0.50000000
   0.22230000  0.72230000  0.50000000
   0.00000000  0.00000000  0.00000000
   0.50000000  0.50000000  0.00000000
   0.56130647  0.05382592  0.85523038
   0.45793679  0.97329794  0.17180984
   0.06143189  0.45183768  0.85108174
   0.95763828  0.57932174  0.13501887
   0.00000000  0.00000000  0.50000000
   0.50000000  0.50000000  0.50000000
Direct configuration=     5
   0.47648528  0.96540254  0.96712530
   0.97608150  0.46029425  0.01843623
   0.50967694  0.05126881  0.26561519
   0.62111669  0.14097771  0.91654068
   0.56741611  0.04052537  0.69493192
   0.39165847  0.89775759  0.24866857
   0.41621642  0.87696692  0.88306707
   0.00943916  0.67982952  0.10653495
   0.12135160  0.54041686  0.79124262
   0.06747246  0.35474965  0.76645843
   0.89156345  0.57542861  0.26686330
   0.91625850  0.35932997  0.06558120
   0.27770000  0.22230000  0.50000000
   0.72230000  0.77770000  0.50000000
   0.77770000  0.27770000  0.50000000
   0.22230000  0.72230000  0.50000000
   0.00000000  0.00000000  0.00000000
   0.50000000  0.50000000  0.00000000
   0.56198786  0.05423160  0.85422366
   0.45756749  0.97378078  0.17291468
   0.06191168  0.45172205  0.85014186
   0.95730104  0.58013323  0.13551397
   0.00000000  0.00000000  0.50000000
   0.50000000  0.50000000  0.50000000
Direct configuration=     6
   0.47593085  0.96455956  0.96703670
   0.97599770  0.45988847  0.01821012
   0.50950775  0.05127743  0.26444320
   0.62087940  0.14097350  0.91675183
   0.56782436  0.04046276  0.69519846
   0.39141709  0.89766923  0.24885208
   0.41641286  0.87725169  0.88314135
   0.00897644  0.67937761  0.10593225
   0.12101259  0.54008262  0.79170020
   0.06787774  0.35464778  0.76657479
   0.89118301  0.57556110  0.26679884
   0.91618255  0.35931527  0.06575993
   0.27770000  0.22230000  0.50000000
   0.72230000  0.77770000  0.50000000
   0.77770000  0.27770000  0.50000000
   0.22230000  0.72230000  0.50000000
   0.00000000  0.00000000  0.00000000
   0.50000000  0.50000000  0.00000000
   0.56199122  0.05476725  0.85517964
   0.45840326  0.97377295  0.17244064
   0.06183934  0.45231759  0.85062349
   0.95781913  0.58021474  0.13527489
   0.00000000  0.00000000  0.50000000
   0.50000000  0.50000000  0.50000000
Direct configuration=     7
   0.47629217  0.96510893  0.96709444
   0.97605231  0.46015291  0.01835748
   0.50961802  0.05127181  0.26520699
   0.62103404  0.14097625  0.91661422
   0.56755831  0.04050357  0.69502476
   0.39157440  0.89772681  0.24873249
   0.41628484  0.87706610  0.88309294
   0.00927800  0.67967212  0.10632502
   0.12123352  0.54030044  0.79140199
   0.06761362  0.35471417  0.76649896
   0.89143094  0.57547475  0.26684084
   0.91623204  0.35932485  0.06564345
   0.27770000  0.22230000  0.50000000
   0.72230000  0.77770000  0.50000000
   0.77770000  0.27770000  0.50000000
   0.22230000  0.72230000  0.50000000
   0.00000000  0.00000000  0.00000000
   0.50000000  0.50000000  0.00000000
   0.56198903  0.05441817  0.85455663
   0.45785859  0.97377805  0.17274957
   0.06188648  0.45192948  0.85030961
   0.95748149  0.58016162  0.13543070
   0.00000000  0.00000000  0.50000000
   0.50000000  0.50000000  0.50000000
Direct configuration=     8
   0.47618592  0.96475245  0.96685655
   0.97593078  0.45997049  0.01843637
   0.50967873  0.05164804  0.26411677
   0.62097361  0.14134070  0.91730095
   0.56805472  0.04044064  0.69545402
   0.39139845  0.89775024  0.24884039
   0.41624642  0.87699173  0.88279329
   0.00898772  0.67956902  0.10539061
   0.12105823  0.54034827  0.79180466
   0.06809067  0.35472730  0.76678882
   0.89102317  0.57563179  0.26663003
   0.91600718  0.35906587  0.06593805
   0.27770000  0.22230000  0.50000000
   0.72230000  0.77770000  0.50000000
   0.77770000  0.27770000  0.50000000
   0.22230000  0.72230000  0.50000000
   0.00000000  0.00000000  0.00000000
   0.50000000  0.50000000  0.00000000
   0.56169068  0.05455887  0.85496360
   0.45827620  0.97314452  0.17270084
   0.06184226  0.45188118  0.85027570
   0.95765707  0.57990975  0.13567141
   0.00000000  0.00000000  0.50000000
   0.50000000  0.50000000  0.50000000
Direct configuration=     9
   0.47599011  0.96409550  0.96641815
   0.97570680  0.45963429  0.01858176
   0.50979062  0.05234138  0.26210763
   0.62086226  0.14201236  0.91856651
   0.56896956  0.04032468  0.69624512
   0.39107419  0.89779340  0.24903923
   0.41617562  0.87685467  0.88224105
   0.00845278  0.67937902  0.10366858
   0.12073518  0.54043641  0.79254674
   0.06896981  0.35475150  0.76732300
   0.89027170  0.57592119  0.26624153
   0.91559278  0.35858860  0.06648096
   0.27770000  0.22230000  0.50000000
   0.72230000  0.77770000  0.50000000
   0.77770000  0.27770000  0.50000000
   0.22230000  0.72230000  0.50000000
   0.00000000  0.00000000  0.00000000
   0.50000000  0.50000000  0.00000000
   0.56114085  0.05481816  0.85571360
   0.45904582  0.97197699  0.17261102
   0.06176078  0.45179217  0.85021322
   0.95798064  0.57944557  0.13611502
   0.00000000  0.00000000  0.50000000
   0.50000000  0.50000000  0.50000000
Direct configuration=    10
   0.47601338  0.96404693  0.96647162
   0.97566612  0.45951578  0.01860990
   0.50979461  0.05245421  0.26167124
   0.62075558  0.14205189  0.91880951
   0.56916977  0.04030964  0.69645375
   0.39100958  0.89780412  0.24910153
   0.41611803  0.87674702  0.88204024
   0.00832916  0.67933368  0.10330660
   0.12069788  0.54050570  0.79267931
   0.06916632  0.35471266  0.76740198
   0.89012625  0.57598926  0.26611877
   0.91552628  0.35850849  0.06657375
   0.27770000  0.22230000  0.50000000
   0.72230000  0.77770000  0.50000000
   0.77770000  0.27770000  0.50000000
   0.22230000  0.72230000  0.50000000
   0.00000000  0.00000000  0.00000000
   0.50000000  0.50000000  0.00000000
   0.56110740  0.05496415  0.85579208
   0.45920206  0.97174979  0.17258298
   0.06168385  0.45175656  0.85030776
   0.95801844  0.57936785  0.13622610
   0.00000000  0.00000000  0.50000000
   0.50000000  0.50000000  0.50000000
Direct configuration=    11
   0.47608319  0.96390123  0.96663201
   0.97554406  0.45916023  0.01869429
   0.50980659  0.05279270  0.26036208
   0.62043555  0.14217045  0.91953852
   0.56977043  0.04026453  0.69707963
   0.39081573  0.89783628  0.24928842
   0.41594527  0.87642408  0.88143782
   0.00795828  0.67919766  0.10222065
   0.12058598  0.54071357  0.79307704
   0.06975584  0.35459611  0.76763889
   0.88968991  0.57619349  0.26575049
   0.91532678  0.35826818  0.06685213
   0.27770000  0.22230000  0.50000000
   0.72230000  0.77770000  0.50000000
   0.77770000  0.27770000  0.50000000
   0.22230000  0.72230000  0.50000000
   0.00000000  0.00000000  0.00000000
   0.50000000  0.50000000  0.00000000
   0.56100705  0.05540214  0.85602751
   0.45967081  0.97106817  0.17249888
   0.06145307  0.45164973  0.85059137
   0.95813184  0.57913467  0.13655931
   0.00000000  0.00000000  0.50000000
   0.50000000  0.50000000  0.50000000
Direct configuration=    12
   0.47622281  0.96360984  0.96695281
   0.97529995  0.45844913  0.01886309
   0.50983056  0.05346967  0.25774376
   0.61979550  0.14240758  0.92099654
   0.57097174  0.04017430  0.69833141
   0.39042803  0.89790059  0.24966221
   0.41559975  0.87577821  0.88023298
   0.00721653  0.67892563  0.10004875
   0.12036218  0.54112931  0.79387250
   0.07093488  0.35436302  0.76811271
   0.88881722  0.57660195  0.26501393
   0.91492779  0.35778755  0.06740890
   0.27770000  0.22230000  0.50000000
   0.72230000  0.77770000  0.50000000
   0.77770000  0.27770000  0.50000000
   0.22230000  0.72230000  0.50000000
   0.00000000  0.00000000  0.00000000
   0.50000000  0.50000000  0.00000000
   0.56080633  0.05627812  0.85649837
   0.46060830  0.96970493  0.17233066
   0.06099150  0.45143606  0.85115859
   0.95835863  0.57866832  0.13722573
   0.00000000  0.00000000  0.50000000
   0.50000000  0.50000000  0.50000000
Direct configuration=    13
   0.47611940  0.96382565  0.96671523
   0.97548074  0.45897578  0.01873808
   0.50981281  0.05296830  0.25968291
   0.62026953  0.14223196  0.91991672
   0.57008204  0.04024112  0.69740433
   0.39071516  0.89785296  0.24938538
   0.41585564  0.87625655  0.88112530
   0.00776588  0.67912710  0.10165728
   0.12052793  0.54082141  0.79328338
   0.07006167  0.35453565  0.76776179
   0.88946354  0.57629944  0.26555943
   0.91522328  0.35814351  0.06699655
   0.27770000  0.22230000  0.50000000
   0.72230000  0.77770000  0.50000000
   0.77770000  0.27770000  0.50000000
   0.22230000  0.72230000  0.50000000
   0.00000000  0.00000000  0.00000000
   0.50000000  0.50000000  0.00000000
   0.56095498  0.05562936  0.85614964
   0.45991398  0.97071456  0.17245524
   0.06133334  0.45159430  0.85073850
   0.95819066  0.57901370  0.13673217
   0.00000000  0.00000000  0.50000000
   0.50000000  0.50000000  0.50000000
Direct configuration=    14
   0.47621889  0.96381499  0.96652322
   0.97537985  0.45887596  0.01899587
   0.50975941  0.05297709  0.25929271
   0.62008259  0.14218382  0.92016332
   0.57030436  0.04025123  0.69756712
   0.39067171  0.89787107  0.24948249
   0.41584512  0.87616485  0.88092306
   0.00759930  0.67903984  0.10134530
   0.12046892  0.54087428  0.79345272
   0.07026363  0.35444698  0.76781900
   0.88932201  0.57638143  0.26541227
   0.91519767  0.35808314  0.06704623
   0.27770000  0.22230000  0.50000000
   0.72230000  0.77770000  0.50000000
   0.77770000  0.27770000  0.50000000
   0.22230000  0.72230000  0.50000000
   0.00000000  0.00000000  0.00000000
   0.50000000  0.50000000  0.00000000
   0.56091128  0.05574291  0.85627131
   0.46006061  0.97062012  0.17259367
   0.06131109  0.45158782  0.85076481
   0.95821612  0.57893485  0.13668311
   0.00000000  0.00000000  0.50000000
   0.50000000  0.50000000  0.50000000
Direct configuration=    15
   0.47631037  0.96380518  0.96634668
   0.97528708  0.45878418  0.01923291
   0.50971031  0.05298517  0.25893392
   0.61991071  0.14213956  0.92039006
   0.57050879  0.04026053  0.69771681
   0.39063176  0.89788772  0.24957178
   0.41583544  0.87608053  0.88073710
   0.00744613  0.67895960  0.10105843
   0.12041466  0.54092289  0.79360842
   0.07044933  0.35436545  0.76787160
   0.88919187  0.57645682  0.26527695
   0.91517413  0.35802764  0.06709191
   0.27770000  0.22230000  0.50000000
   0.72230000  0.77770000  0.50000000
   0.77770000  0.27770000  0.50000000
   0.22230000  0.72230000  0.50000000
   0.00000000  0.00000000  0.00000000
   0.50000000  0.50000000  0.00000000
   0.56087109  0.05584731  0.85638317
   0.46019543  0.97053329  0.17272096
   0.06129062  0.45158185  0.85078899
   0.95823953  0.57886235  0.13663799
   0.00000000  0.00000000  0.50000000
   0.50000000  0.50000000  0.50000000
Direct configuration=    16
   0.47634088  0.96374680  0.96628017
   0.97530190  0.45872837  0.01932983
   0.50967312  0.05297537  0.25886119
   0.61976727  0.14210373  0.92060933
   0.57067904  0.04030411  0.69777194
   0.39064302  0.89792304  0.24965747
   0.41591601  0.87608214  0.88063947
   0.00731505  0.67888694  0.10089396
   0.12035382  0.54094015  0.79375602
   0.07057928  0.35430376  0.76792619
   0.88912127  0.57653020  0.26513602
   0.91517294  0.35796681  0.06711722
   0.27770000  0.22230000  0.50000000
   0.72230000  0.77770000  0.50000000
   0.77770000  0.27770000  0.50000000
   0.22230000  0.72230000  0.50000000
   0.00000000  0.00000000  0.00000000
   0.50000000  0.50000000  0.00000000
   0.56082140  0.05583863  0.85635941
   0.46022673  0.97049962  0.17260764
   0.06125854  0.45155068  0.85085406
   0.95817022  0.57884203  0.13658838
   0.00000000  0.00000000  0.50000000
   0.50000000  0.50000000  0.50000000
Direct configuration=    17
   0.47643240  0.96357167  0.96608065
   0.97534634  0.45856094  0.01962060
   0.50956156  0.05294596  0.25864303
   0.61933696  0.14199623  0.92126711
   0.57118976  0.04043487  0.69793733
   0.39067682  0.89802898  0.24991456
   0.41615773  0.87608698  0.88034658
   0.00692181  0.67866897  0.10040054
   0.12017131  0.54099191  0.79419882
   0.07096916  0.35411867  0.76808996
   0.88890947  0.57675036  0.26471324
   0.91516939  0.35778434  0.06719316
   0.27770000  0.22230000  0.50000000
   0.72230000  0.77770000  0.50000000
   0.77770000  0.27770000  0.50000000
   0.22230000  0.72230000  0.50000000
   0.00000000  0.00000000  0.00000000
   0.50000000  0.50000000  0.00000000
   0.56067231  0.05581258  0.85628811
   0.46032064  0.97039859  0.17226769
   0.06116231  0.45145715  0.85104926
   0.95796231  0.57878106  0.13643952
   0.00000000  0.00000000  0.50000000
   0.50000000  0.50000000  0.50000000
Direct configuration=    18
   0.47661543  0.96322141  0.96568162
   0.97543521  0.45822608  0.02020214
   0.50933843  0.05288713  0.25820669
   0.61847633  0.14178124  0.92258269
   0.57221122  0.04069638  0.69826811
   0.39074441  0.89824087  0.25042873
   0.41664117  0.87609665  0.87976080
   0.00613532  0.67823302  0.09941370
   0.11980628  0.54109544  0.79508441
   0.07174891  0.35374849  0.76841750
   0.88848588  0.57719068  0.26386768
   0.91516228  0.35741939  0.06734503
   0.27770000  0.22230000  0.50000000
   0.72230000  0.77770000  0.50000000
   0.77770000  0.27770000  0.50000000
   0.22230000  0.72230000  0.50000000
   0.00000000  0.00000000  0.00000000
   0.50000000  0.50000000  0.00000000
   0.56037414  0.05576048  0.85614552
   0.46050844  0.97019652  0.17158778
   0.06096984  0.45127011  0.85143966
   0.95754648  0.57865913  0.13614182
   0.00000000  0.00000000  0.50000000
   0.50000000  0.50000000  0.50000000
Direct configuration=    19
   0.47662750  0.96316298  0.96561840
   0.97544261  0.45815593  0.02024206
   0.50931142  0.05287993  0.25816200
   0.61835063  0.14175263  0.92277210
   0.57236409  0.04073247  0.69825444
   0.39077678  0.89828526  0.25046544
   0.41670925  0.87607444  0.87966361
   0.00603720  0.67820907  0.09926219
   0.11974897  0.54110268  0.79521649
   0.07185682  0.35372406  0.76850148
   0.88839927  0.57725315  0.26378767
   0.91516784  0.35736096  0.06737949
   0.27770000  0.22230000  0.50000000
   0.72230000  0.77770000  0.50000000
   0.77770000  0.27770000  0.50000000
   0.22230000  0.72230000  0.50000000
   0.00000000  0.00000000  0.00000000
   0.50000000  0.50000000  0.00000000
   0.56035762  0.05577773  0.85615734
   0.46049600  0.97015664  0.17155792
   0.06096233  0.45121628  0.85147008
   0.95747654  0.57862950  0.13608195
   0.00000000  0.00000000  0.50000000
   0.50000000  0.50000000  0.50000000
Direct configuration=    20
   0.47666371  0.96298768  0.96542876
   0.97546480  0.45794548  0.02036180
   0.50923040  0.05285831  0.25802791
   0.61797352  0.14166682  0.92334033
   0.57282269  0.04084072  0.69821346
   0.39087390  0.89841843  0.25057555
   0.41691347  0.87600781  0.87937204
   0.00574283  0.67813721  0.09880768
   0.11957703  0.54112439  0.79561272
   0.07218054  0.35365076  0.76875345
   0.88813943  0.57744057  0.26354762
   0.91518450  0.35718566  0.06748289
   0.27770000  0.22230000  0.50000000
   0.72230000  0.77770000  0.50000000
   0.77770000  0.27770000  0.50000000
   0.22230000  0.72230000  0.50000000
   0.00000000  0.00000000  0.00000000
   0.50000000  0.50000000  0.00000000
   0.56030807  0.05582949  0.85619282
   0.46045868  0.97003701  0.17146834
   0.06093980  0.45105478  0.85156133
   0.95726673  0.57854059  0.13590234
   0.00000000  0.00000000  0.50000000
   0.50000000  0.50000000  0.50000000
Direct configuration=    21
   0.47673612  0.96263708  0.96504947
   0.97550918  0.45752457  0.02060129
   0.50906834  0.05281509  0.25775974
   0.61721931  0.14149520  0.92447678
   0.57373989  0.04105722  0.69813148
   0.39106814  0.89868478  0.25079579
   0.41732191  0.87587456  0.87878891
   0.00515408  0.67799349  0.09789866
   0.11923316  0.54116781  0.79640519
   0.07282798  0.35350416  0.76925737
   0.88761975  0.57781541  0.26306751
   0.91521783  0.35683506  0.06768970
   0.27770000  0.22230000  0.50000000
   0.72230000  0.77770000  0.50000000
   0.77770000  0.27770000  0.50000000
   0.22230000  0.72230000  0.50000000
   0.00000000  0.00000000  0.00000000
   0.50000000  0.50000000  0.00000000
   0.56020896  0.05593302  0.85626376
   0.46038403  0.96979774  0.17128919
   0.06089473  0.45073178  0.85174383
   0.95684710  0.57836277  0.13554311
   0.00000000  0.00000000  0.50000000
   0.50000000  0.50000000  0.50000000
Direct configuration=    22
   0.47673917  0.96262718  0.96510534
   0.97546101  0.45740217  0.02053391
   0.50904276  0.05279455  0.25771708
   0.61712482  0.14154888  0.92472793
   0.57392254  0.04110629  0.69807769
   0.39107708  0.89867208  0.25079618
   0.41735923  0.87571668  0.87859886
   0.00507339  0.67805283  0.09769584
   0.11916365  0.54114572  0.79654373
   0.07295062  0.35348126  0.76939753
   0.88744227  0.57786678  0.26308694
   0.91524233  0.35673029  0.06778424
   0.27770000  0.22230000  0.50000000
   0.72230000  0.77770000  0.50000000
   0.77770000  0.27770000  0.50000000
   0.22230000  0.72230000  0.50000000
   0.00000000  0.00000000  0.00000000
   0.50000000  0.50000000  0.00000000
   0.56022047  0.05592691  0.85624339
   0.46036932  0.96982918  0.17127941
   0.06095087  0.45069097  0.85179035
   0.95676533  0.57832234  0.13540738
   0.00000000  0.00000000  0.50000000
   0.50000000  0.50000000  0.50000000
Direct configuration=    23
   0.47674832  0.96259749  0.96527297
   0.97531651  0.45703498  0.02033175
   0.50896604  0.05273296  0.25758911
   0.61684134  0.14170993  0.92548138
   0.57447046  0.04125348  0.69791629
   0.39110390  0.89863398  0.25079735
   0.41747117  0.87524303  0.87802871
   0.00483130  0.67823084  0.09708740
   0.11895513  0.54107944  0.79695937
   0.07331856  0.35341253  0.76981803
   0.88690982  0.57802090  0.26314524
   0.91531582  0.35641599  0.06806785
   0.27770000  0.22230000  0.50000000
   0.72230000  0.77770000  0.50000000
   0.77770000  0.27770000  0.50000000
   0.22230000  0.72230000  0.50000000
   0.00000000  0.00000000  0.00000000
   0.50000000  0.50000000  0.00000000
   0.56025500  0.05590859  0.85618226
   0.46032518  0.96992350  0.17125007
   0.06111928  0.45056856  0.85192992
   0.95652002  0.57820105  0.13500020
   0.00000000  0.00000000  0.50000000
   0.50000000  0.50000000  0.50000000
Direct configuration=    24
   0.47668837  0.96253185  0.96509698
   0.97521140  0.45701941  0.02023530
   0.50898688  0.05276490  0.25763096
   0.61677970  0.14180744  0.92565288
   0.57463159  0.04130559  0.69790539
   0.39108445  0.89854580  0.25072614
   0.41754041  0.87505621  0.87793417
   0.00474096  0.67827120  0.09689153
   0.11894269  0.54109232  0.79701079
   0.07345071  0.35334971  0.76994349
   0.88676748  0.57803005  0.26306202
   0.91535496  0.35623928  0.06821670
   0.27770000  0.22230000  0.50000000
   0.72230000  0.77770000  0.50000000
   0.77770000  0.27770000  0.50000000
   0.22230000  0.72230000  0.50000000
   0.00000000  0.00000000  0.00000000
   0.50000000  0.50000000  0.00000000
   0.56034795  0.05593868  0.85625008
   0.46023979  0.96997591  0.17131975
   0.06118737  0.45048560  0.85206956
   0.95635746  0.57821908  0.13494361
   0.00000000  0.00000000  0.50000000
   0.50000000  0.50000000  0.50000000
Direct configuration=    25
   0.47653973  0.96236909  0.96466057
   0.97495075  0.45698080  0.01999613
   0.50903857  0.05284411  0.25773473
   0.61662683  0.14204926  0.92607814
   0.57503113  0.04143481  0.69787836
   0.39103624  0.89832713  0.25054956
   0.41771209  0.87459293  0.87769973
   0.00451694  0.67837128  0.09640582
   0.11891186  0.54112426  0.79713829
   0.07377839  0.35319393  0.77025459
   0.88641453  0.57805273  0.26285567
   0.91545201  0.35580109  0.06858579
   0.27770000  0.22230000  0.50000000
   0.72230000  0.77770000  0.50000000
   0.77770000  0.27770000  0.50000000
   0.22230000  0.72230000  0.50000000
   0.00000000  0.00000000  0.00000000
   0.50000000  0.50000000  0.00000000
   0.56057843  0.05601328  0.85641825
   0.46002805  0.97010587  0.17149254
   0.06135620  0.45027987  0.85241584
   0.95595433  0.57826381  0.13480328
   0.00000000  0.00000000  0.50000000
   0.50000000  0.50000000  0.50000000
Direct configuration=    26
   0.47651685  0.96236073  0.96463458
   0.97483401  0.45697520  0.02000521
   0.50905871  0.05287428  0.25778158
   0.61658623  0.14213250  0.92618616
   0.57514795  0.04148468  0.69792712
   0.39101480  0.89824459  0.25048643
   0.41777392  0.87444790  0.87765113
   0.00442342  0.67836619  0.09627911
   0.11890736  0.54112160  0.79716165
   0.07388202  0.35312901  0.77034507
   0.88630804  0.57804892  0.26277302
   0.91550096  0.35568564  0.06869041
   0.27770000  0.22230000  0.50000000
   0.72230000  0.77770000  0.50000000
   0.77770000  0.27770000  0.50000000
   0.22230000  0.72230000  0.50000000
   0.00000000  0.00000000  0.00000000
   0.50000000  0.50000000  0.00000000
   0.56063950  0.05600094  0.85645531
   0.45994686  0.97013070  0.17138937
   0.06142874  0.45023947  0.85251527
   0.95583703  0.57830066  0.13470947
   0.00000000  0.00000000  0.50000000
   0.50000000  0.50000000  0.50000000
Direct configuration=    27
   0.47644823  0.96233568  0.96455662
   0.97448378  0.45695839  0.02003242
   0.50911915  0.05296478  0.25792210
   0.61646444  0.14238222  0.92651021
   0.57549842  0.04163427  0.69807342
   0.39095048  0.89799698  0.25029704
   0.41795941  0.87401282  0.87750533
   0.00414286  0.67835093  0.09589898
   0.11889388  0.54111364  0.79723174
   0.07419290  0.35293423  0.77061652
   0.88598855  0.57803751  0.26252509
   0.91564783  0.35533932  0.06900428
   0.27770000  0.22230000  0.50000000
   0.72230000  0.77770000  0.50000000
   0.77770000  0.27770000  0.50000000
   0.22230000  0.72230000  0.50000000
   0.00000000  0.00000000  0.00000000
   0.50000000  0.50000000  0.00000000
   0.56082271  0.05596391  0.85656650
   0.45970328  0.97020521  0.17107987
   0.06164638  0.45011827  0.85281356
   0.95548512  0.57841122  0.13442805
   0.00000000  0.00000000  0.50000000
   0.50000000  0.50000000  0.50000000
Direct configuration=    28
   0.47631098  0.96228556  0.96440070
   0.97378332  0.45692476  0.02008686
   0.50924002  0.05314578  0.25820316
   0.61622086  0.14288166  0.92715832
   0.57619935  0.04193345  0.69836600
   0.39082185  0.89750177  0.24991827
   0.41833038  0.87314266  0.87721372
   0.00358174  0.67832042  0.09513871
   0.11886690  0.54109771  0.79737192
   0.07481468  0.35254469  0.77115941
   0.88534956  0.57801470  0.26202922
   0.91594155  0.35464666  0.06963200
   0.27770000  0.22230000  0.50000000
   0.72230000  0.77770000  0.50000000
   0.77770000  0.27770000  0.50000000
   0.22230000  0.72230000  0.50000000
   0.00000000  0.00000000  0.00000000
   0.50000000  0.50000000  0.00000000
   0.56118912  0.05588986  0.85678888
   0.45921612  0.97035421  0.17046087
   0.06208165  0.44987587  0.85341015
   0.95478130  0.57863235  0.13386522
   0.00000000  0.00000000  0.50000000
   0.50000000  0.50000000  0.50000000
Direct configuration=    29
   0.47641030  0.96232183  0.96451353
   0.97429019  0.45694909  0.02004747
   0.50915256  0.05301480  0.25799978
   0.61639712  0.14252025  0.92668933
   0.57569213  0.04171695  0.69815428
   0.39091493  0.89786012  0.25019236
   0.41806193  0.87377233  0.87742474
   0.00398778  0.67834250  0.09568886
   0.11888642  0.54110923  0.79727048
   0.07436474  0.35282658  0.77076656
   0.88581195  0.57803121  0.26238805
   0.91572900  0.35514789  0.06917776
   0.27770000  0.22230000  0.50000000
   0.72230000  0.77770000  0.50000000
   0.77770000  0.27770000  0.50000000
   0.22230000  0.72230000  0.50000000
   0.00000000  0.00000000  0.00000000
   0.50000000  0.50000000  0.00000000
   0.56092397  0.05594345  0.85662796
   0.45956864  0.97024639  0.17090880
   0.06176667  0.45005128  0.85297844
   0.95529061  0.57847234  0.13427250
   0.00000000  0.00000000  0.50000000
   0.50000000  0.50000000  0.50000000
Direct configuration=    30
   0.47645112  0.96234100  0.96448414
   0.97422993  0.45690892  0.02007151
   0.50910322  0.05293899  0.25794272
   0.61632126  0.14257543  0.92673686
   0.57581904  0.04178622  0.69829472
   0.39091889  0.89778577  0.25005803
   0.41818666  0.87367035  0.87745487
   0.00384089  0.67830647  0.09557147
   0.11888032  0.54107056  0.79728444
   0.07448775  0.35275911  0.77090331
   0.88568885  0.57802918  0.26225955
   0.91581509  0.35509543  0.06926853
   0.27770000  0.22230000  0.50000000
   0.72230000  0.77770000  0.50000000
   0.77770000  0.27770000  0.50000000
   0.22230000  0.72230000  0.50000000
   0.00000000  0.00000000  0.00000000
   0.50000000  0.50000000  0.00000000
   0.56098277  0.05590819  0.85671492
   0.45945818  0.97031501  0.17083001
   0.06180554  0.45002052  0.85316513
   0.95511862  0.57849324  0.13409121
   0.00000000  0.00000000  0.50000000
   0.50000000  0.50000000  0.50000000
Direct configuration=    31
   0.47657359  0.96239851  0.96439596
   0.97404913  0.45678839  0.02014363
   0.50895521  0.05271156  0.25777154
   0.61609369  0.14274097  0.92687945
   0.57619975  0.04199403  0.69871604
   0.39093076  0.89756273  0.24965505
   0.41856085  0.87336438  0.87754528
   0.00340024  0.67819837  0.09521928
   0.11886202  0.54095453  0.79732632
   0.07485675  0.35255672  0.77131359
   0.88531955  0.57802310  0.26187406
   0.91607336  0.35493804  0.06954086
   0.27770000  0.22230000  0.50000000
   0.72230000  0.77770000  0.50000000
   0.77770000  0.27770000  0.50000000
   0.22230000  0.72230000  0.50000000
   0.00000000  0.00000000  0.00000000
   0.50000000  0.50000000  0.00000000
   0.56115918  0.05580243  0.85697582
   0.45912678  0.97052088  0.17059365
   0.06192213  0.44992826  0.85372520
   0.95460266  0.57855596  0.13354733
   0.00000000  0.00000000  0.50000000
   0.50000000  0.50000000  0.50000000
Direct configuration=    32
   0.47681853  0.96251353  0.96421960
   0.97368754  0.45654734  0.02028787
   0.50865920  0.05225669  0.25742918
   0.61563854  0.14307205  0.92716463
   0.57696119  0.04240964  0.69955868
   0.39095449  0.89711663  0.24884908
   0.41930922  0.87275246  0.87772610
   0.00251892  0.67798219  0.09451489
   0.11882541  0.54072247  0.79741007
   0.07559477  0.35215194  0.77213414
   0.88458094  0.57801094  0.26110307
   0.91658989  0.35462325  0.07008550
   0.27770000  0.22230000  0.50000000
   0.72230000  0.77770000  0.50000000
   0.77770000  0.27770000  0.50000000