LAMMPS data file via write_data, version 23 Jun 2022, timestep = 21

648 atoms
6 atom types
378 bonds
3 bond types
486 angles
4 angle types
432 dihedrals
2 dihedral types
162 impropers
2 improper types

-6.741 20.204 xlo xhi
-0.165028 23.170027 ylo yhi
-1.1815 20.830499 zlo zhi
-13.4725 0 0 xy xz yz

Masses

1 12.01
2 1.008
3 1.008
4 126.900002
5 14.01
6 207.199997

Bond Coeffs # harmonic

1 340.4 1.08
2 448 1.365
3 434 1.01

Angle Coeffs # harmonic

1 35 120
2 35 113
3 35 119.1
4 70 120

Dihedral Coeffs # opls

1 0 3.9 0 0
2 0 3.9 0 0

Improper Coeffs # cvff

1 2.5 -1 2
2 2.5 -1 2

Atoms # full

2 1 1 0.5671 4.241333943387115 2.9725460727578175 3.954009710866281 0 0 0
3 1 1 0.5671 -0.27914546066343277 0.3612555820708207 0.265586213138061 0 0 0
38 1 1 0.5671 -4.74044570833204 2.972411258961222 3.9539851540258613 1 0 0
56 1 2 0.4648 1.0422267932669362 3.8126923738235616 7.505181452740607 0 0 0
59 1 2 0.4648 4.480792619173176 2.131170733355413 2.0773868542848377 0 0 0
60 1 2 0.4648 5.41902282133456 1.2538063321920108 3.862293668090215 0 0 0
61 1 2 0.4648 5.256774382608885 1.9158448200326768 5.399884273763701 0 0 0
62 1 2 0.4648 3.513757073292992 3.512360050246269 2.0930582850611725 0 0 0
78 1 2 0.4648 -0.9461447930895872 0.9431400950900618 9.393454485128254 0 0 0
200 1 2 0.4648 -7.938912194548694 3.81268038344927 7.505070769902371 1 0 0
203 1 2 0.4648 -4.500449975707007 2.131161465984858 2.0773776574062395 1 0 0
204 1 2 0.4648 -3.5624522687488613 1.253843362307692 3.862398811227344 1 0 0
205 1 2 0.4648 -3.7252342417158886 1.915742421431314 5.400012995831798 1 0 0
206 1 2 0.4648 -5.467346210187995 3.512443005660211 2.0928117196802023 1 0 0
272 1 3 0.2225 3.7864196190610495 3.7544906588636358 4.57454290348513 0 0 0
273 1 3 0.2225 -0.7386390353716753 1.1322712070375578 0.8943838207714584 0 0 0
308 1 3 0.2225 -5.19549290468198 3.754317826602421 4.574446781881645 1 0 0
326 1 4 -1 0.02414635338553754 2.7310628720844248 3.658905883607543 0 0 0
330 1 4 -1 2.2722560920573383 1.3804252604305207 7.259182711976061 0 0 0
331 1 4 -1 2.1880338642253085 4.012890087989272 0.005258395954634971 0 0 0
333 1 4 -1 -2.260407535212486 4.047771651313287 -0.09588313508734221 0 0 0
368 1 4 -1 4.478400278341813 0.17759128193450274 0.016186451951257525 0 1 0
436 1 4 -1 -2.279957660838278 1.3706635980128028 7.329460817626946 1 0 0
438 1 4 -1 -6.7088566583218405 1.3803165703181774 7.258807291684161 1 0 0
439 1 4 -1 -6.793159195913016 4.013205705859017 0.005254067594629958 1 0 0
476 1 4 -1 -4.5034365467430995 0.17750871078103686 0.01591429553879759 1 1 0
489 1 5 -0.8245 5.001813398479689 1.981741790270048 4.421333204912116 0 0 0
490 1 5 -0.8245 4.1133546249940585 2.8920953127652957 2.6277852665982153 0 0 0
492 1 5 -0.8245 -0.35810819043187 0.3175711789792659 -1.0673494091191162 0 0 0
561 1 5 -0.8245 -3.9799120460715827 1.9816940433030519 4.421385909807367 1 0 0
562 1 5 -0.8245 -4.8681891663639485 2.891959657692142 2.627751778578254 1 0 0
595 1 6 2 4.462326547823436 2.7101369215367703 9.148016361755223 0 0 0
596 1 6 2 -0.005591440869163257 0.11140700465594777 5.446388906933397 0 0 0
631 1 6 2 -4.519351012102189 2.710102898094579 9.148018900287813 1 0 0
57 1 2 0.4648 0.800648366601099 4.488721887864805 9.020699147743079 0 0 0
201 1 2 0.4648 -8.180523643020472 4.488589016584144 9.020644362303546 1 0 0
5 1 1 0.5671 4.241333942548947 2.972545983902074 14.960009446763449 0 0 0
6 1 1 0.5671 -0.27914549295298285 0.36125568056872165 11.271585839173484 0 0 0
41 1 1 0.5671 -4.740445742045263 2.972411185783152 14.959984882518107 1 0 0
66 1 2 0.4648 -0.9461447536816703 0.943140041243559 20.3994538064234 0 0 -1
68 1 2 0.4648 1.0422267222241839 3.8126923050811077 18.51118112760878 0 0 0
71 1 2 0.4648 4.480792491780598 2.131170725756754 13.083386271709204 0 0 0
72 1 2 0.4648 5.4190226107903925 1.2538063412891998 14.868293129199158 0 0 0
73 1 2 0.4648 5.256774284574866 1.9158448057341655 16.405883633044258 0 0 0
74 1 2 0.4648 3.5137568710660076 3.5123603251081295 13.099057834322267 0 0 0
212 1 2 0.4648 -7.938912268907778 3.8126802779429476 18.511070425050832 1 0 0
215 1 2 0.4648 -4.500450107863531 2.1311614865350768 13.08337706712655 1 0 0
216 1 2 0.4648 -3.5624524853873325 1.2538433670299138 14.86839827369427 1 0 0
217 1 2 0.4648 -3.7252343388218683 1.9157424062936155 16.40601234007833 1 0 0
218 1 2 0.4648 -5.467346454850051 3.512443306397785 13.098811252135755 1 0 0
275 1 3 0.2225 3.786419596047412 3.7544906923369883 15.580542527622308 0 0 0
276 1 3 0.2225 -0.7386390935343072 1.132271249672775 11.900383453269818 0 0 0
311 1 3 0.2225 -5.1954929348689 3.75431783649354 15.58044640707017 1 0 0
335 1 4 -1 0.024146297829402627 2.7310628455722985 14.66490524702601 0 0 0
339 1 4 -1 2.272256070015178 1.3804254579972361 18.265182177410274 0 0 0
340 1 4 -1 2.1880337984348297 4.012890121390468 11.011257735541802 0 0 0
342 1 4 -1 -2.260407611937675 4.047771716908247 10.910116259622049 0 0 0
377 1 4 -1 4.478400250303459 0.17759137306413347 11.022186050596464 0 1 0
445 1 4 -1 -2.2799576342596692 1.3706637439067857 18.33546033776568 1 0 0
447 1 4 -1 -6.70885672502725 1.380316768209076 18.264806783655878 1 0 0
448 1 4 -1 -6.79315927463716 4.013205724990265 11.01125342288299 1 0 0
485 1 4 -1 -4.503436603535153 0.177508797660265 11.021913828421498 1 1 0
495 1 5 -0.8245 5.001813321119953 1.9817418135627451 15.427332715129738 0 0 0
496 1 5 -0.8245 4.113354535771036 2.892095484351299 13.63378491479551 0 0 0
498 1 5 -0.8245 -0.3581082156631121 0.3175711902631693 9.938650340397603 0 0 0
567 1 5 -0.8245 -3.9799121108468234 1.9816940329755732 15.427385430669872 1 0 0
568 1 5 -0.8245 -4.86818928117431 2.8919598380684657 13.63375145157697 1 0 0
598 1 6 2 4.462326511473435 2.7101370021849243 20.154015883498396 0 0 0
599 1 6 2 -0.005591514634769119 0.11140706875111345 16.452388346689013 0 0 0
634 1 6 2 -4.519351009089038 2.7101029018255516 20.154018351446314 1 0 0
69 1 2 0.4648 0.8006483820106852 4.488722044549851 20.02669877823528 0 0 0
213 1 2 0.4648 -8.180523640901075 4.488589156698286 20.026643980891198 1 0 0
1 1 1 0.5671 -0.18551963956751516 5.509127083066817 7.512747284154785 0 0 0
9 1 1 0.5671 -4.770080259679187 8.139384485836997 0.26564184272851504 0 0 0
37 1 1 0.5671 -9.166964532773875 5.508937586619671 7.512842595626316 1 0 0
55 1 2 0.4648 0.09101309525230426 4.610866159201431 5.648069586568467 0 0 0
633 1 6 2 -9.016083899531294 5.330030851024526 1.7812102472104787 1 0 0
58 1 2 0.4648 -0.8563530817606896 5.99317030612187 5.618307467032262 0 0 0
84 1 2 0.4648 0.9282056180889054 9.032566778104632 3.8623279991561748 0 0 0
88 1 2 0.4648 -3.5891843931897385 6.429556418869051 0.17349624608941577 0 0 0
89 1 2 0.4648 -3.797839962918254 7.056347775117411 1.7208529971883562 0 0 0
99 1 2 0.4648 -4.451805347789974 7.349941703043328 9.388374175573148 0 0 0
102 1 2 0.4648 -5.437204998014466 8.721122976315954 9.3934957298977 0 0 0
199 1 2 0.4648 -8.890919157387788 4.6105362755159645 5.648059386671379 1 0 0
602 1 6 2 -4.4963760669450075 7.889796152118219 5.446396282651613 0 0 0
202 1 2 0.4648 -9.837555016202582 5.993366126979373 5.618425426712068 1 0 0
228 1 2 0.4648 -8.053219366381414 9.032636080120678 3.862437446806425 1 0 0
271 1 3 0.2225 -0.6563095338091282 6.309421821241403 8.096192047575338 0 0 0
279 1 3 0.2225 -5.229638474884079 8.910391372213724 0.8944073323799822 0 0 0
307 1 3 0.2225 -9.63753879823855 6.309271821273264 8.096323667016948 1 0 0
325 1 4 -1 -2.2731640301041325 6.593137072598201 3.6489816117967524 0 0 0
327 1 4 -1 2.2625882123280796 6.6418344330921855 3.5769552124291564 0 0 0
332 1 4 -1 -0.01245491768738384 7.955890393744378 0.016196536242539125 0 0 0
348 1 4 -1 -2.218609936202719 9.158911111363622 7.259238090944216 0 0 0
435 1 4 -1 -6.719078959271085 6.64193136177528 3.576972237822576 1 0 0
437 1 4 -1 -4.491315291064398 5.305388145373024 7.3002068153082655 1 0 0
440 1 4 -1 -8.99418985546841 7.955840093773908 0.015982231814502614 1 0 0
454 1 4 -1 -6.770794246435051 9.149063778380446 7.329502326239512 1 0 0
456 1 4 -1 -11.199707426910447 9.158883326052269 7.25886413147597 1 0 0
487 1 5 -0.8245 0.5766721908021626 4.541348228182826 8.03118915400741 0 0 0
488 1 5 -0.8245 -0.2826843701121837 5.381707063184984 6.184188761581717 0 0 0
503 1 5 -0.8245 -4.021102829145255 7.144559951947302 0.7366176003038656 0 0 0
504 1 5 -0.8245 -4.849119670017534 8.095611140817002 -1.067287261021195 0 0 0
559 1 5 -0.8245 -8.404790561136387 4.541089895435011 8.031183857238025 1 0 0
560 1 5 -0.8245 -9.264229194106386 5.381547104084295 6.184273837654334 1 0 0
597 1 6 2 -0.03494915118915295 5.329979696205453 1.7811661205479437 0 0 0
4 1 1 0.5671 -0.1855197427494525 5.509127196760633 18.51874715595641 0 0 0
12 1 1 0.5671 -4.77008032459951 8.139384487862698 11.271641464857035 0 0 0
40 1 1 0.5671 -9.1669646374362 5.5089377128244195 18.518842454978643 1 0 0
67 1 2 0.4648 0.0910130364093074 4.610866015575228 16.654069266861725 0 0 0
636 1 6 2 -9.016083904315417 5.330030933663815 12.787209685593224 1 0 0
70 1 2 0.4648 -0.8563532316254683 5.993170408792236 16.624307151615174 0 0 0
87 1 2 0.4648 -4.451805355475261 7.349941703564617 20.394373449741657 0 0 -1
90 1 2 0.4648 -5.437204955708256 8.721122981377421 20.399495000807768 0 0 -1
96 1 2 0.4648 0.928205411489329 9.032566774713123 14.868327463931633 0 0 0
100 1 2 0.4648 -3.589184486553036 6.429556446637552 11.17949588218242 0 0 0
101 1 2 0.4648 -3.7978400285443743 7.056347883749308 12.726852656969838 0 0 0
211 1 2 0.4648 -8.890919236264086 4.610536128560694 16.65405905430307 1 0 0
605 1 6 2 -4.4963760597409035 7.889796142350131 16.452395632062355 0 0 0
214 1 2 0.4648 -9.837555164138644 5.993366248674511 16.62442507318577 1 0 0
240 1 2 0.4648 -8.053219567161111 9.03263606200685 14.868436893494417 1 0 0
274 1 3 0.2225 -0.6563094565438857 6.30942172029646 19.102191818795543 0 0 0
282 1 3 0.2225 -5.229638560379273 8.910391466695337 11.900406996194292 0 0 0
310 1 3 0.2225 -9.637538718191925 6.309271713431797 19.10232340900911 1 0 0
334 1 4 -1 -2.273164007948224 6.593137052440693 14.654981259093333 0 0 0
336 1 4 -1 2.262588291089365 6.641834365207069 14.582954776662065 0 0 0
341 1 4 -1 -0.01245495798277963 7.955890432512522 11.022196104465785 0 0 0
357 1 4 -1 -2.2186100007022835 9.158911309929065 18.26523757929859 0 0 0
444 1 4 -1 -6.7190789471170556 6.6419313535039395 14.582971807677701 1 0 0
446 1 4 -1 -4.4913153094239595 5.305388274608739 18.306206430179778 1 0 0
449 1 4 -1 -8.994189872408263 7.955840156644523 11.021981847026103 1 0 0
463 1 4 -1 -6.770794265363859 9.149063897213956 18.33550185768737 1 0 0
465 1 4 -1 -11.199707420876264 9.1588835390314 18.264863654820207 1 0 0
493 1 5 -0.8245 0.5766721847370466 4.541348317385574 19.037188886883296 0 0 0
494 1 5 -0.8245 -0.28268445753918486 5.381707109614824 17.19018868039007 0 0 0
509 1 5 -0.8245 -4.021102798942099 7.144560030071 11.74261725936915 0 0 0
510 1 5 -0.8245 -4.849119688906954 8.095611136698617 9.9387124350829 0 0 0
565 1 5 -0.8245 -8.404790577814108 4.541089982628776 19.037183575275986 1 0 0
566 1 5 -0.8245 -9.264229327380535 5.3815471483672885 17.19027376001696 1 0 0
600 1 6 2 -0.03494921310883833 5.329979687627796 12.787165570996684 0 0 0
7 1 1 0.5671 -4.676313121871627 13.287768208992036 7.512867548488622 0 0 0
8 1 1 0.5671 -0.249533365186063 10.751267629807018 3.954059995212621 0 0 0
43 1 1 0.5671 -13.657792090694896 13.287594311933152 7.512898693828395 1 0 0
44 1 1 0.5671 -9.231331406657503 10.75113265512892 3.9540378618975773 1 0 0
79 1 2 0.4648 -4.399614247224259 12.38966676821381 5.648114662314047 0 0 0
80 1 2 0.4648 -3.4485948874998993 11.591348142851308 7.505211801190744 0 0 0
81 1 2 0.4648 -3.6902788030483853 12.267219285790823 9.020816611799011 0 0 0
83 1 2 0.4648 -0.009969421526012007 9.909986622796577 2.077437455399632 0 0 0
85 1 2 0.4648 0.7659460653199059 9.694584989029545 5.3999334538240555 0 0 0
86 1 2 0.4648 -0.9770472104718232 11.29113248319571 2.093122141577551 0 0 0
223 1 2 0.4648 -13.38163507402914 12.389331678701407 5.64804848672646 1 0 0
224 1 2 0.4648 -12.429735131045938 11.591310841891287 7.505072677100244 1 0 0
225 1 2 0.4648 -12.67143156560948 12.267136029873104 9.02067833101364 1 0 0
227 1 2 0.4648 -8.991191692123481 9.90995852912332 2.0774432217541094 1 0 0
229 1 2 0.4648 -8.216044039338113 9.694511155710797 5.400056731954043 1 0 0
230 1 2 0.4648 -9.958172020892377 11.29117989021194 2.092841202581527 1 0 0
278 1 3 0.2225 -0.7045745662952784 11.533154192284666 4.574595662222372 0 0 0
314 1 3 0.2225 -9.686486286067183 11.532991686792824 4.574490099279009 1 0 0
344 1 4 -1 -4.466673129811879 10.50952399436368 3.6589995101138313 0 0 0
349 1 4 -1 -2.302906430924813 11.79123640257919 0.005350477320602474 0 0 0
351 1 4 -1 -6.751288158263306 11.826068783266718 -0.09584821881464682 0 0 0
455 1 4 -1 -8.982107121204493 13.083823635504954 7.300167791539684 1 0 0
457 1 4 -1 -11.284027865249936 11.79166268029749 0.005274075332231087 1 0 0
499 1 5 -0.8245 -3.9141859487687714 12.31994950765478 8.031281390730127 0 0 0
500 1 5 -0.8245 -4.773386266356239 13.160439930564074 6.184292463653384 0 0 0
501 1 5 -0.8245 0.5109660587671391 9.76047937550322 4.421379157808621 0 0 0
502 1 5 -0.8245 -0.3774720258096279 10.670858292749266 2.6278406061447606 0 0 0
571 1 5 -0.8245 -12.895632186101945 12.31972294095051 8.031198188104897 1 0 0
572 1 5 -0.8245 -13.754951877729694 13.160313524186273 6.184313640235153 1 0 0
573 1 5 -0.8245 -8.470757204173902 9.760440843268716 4.421434134435975 1 0 0
574 1 5 -0.8245 -9.3590366752706 10.670701062318619 2.6278086593482706 1 0 0
601 1 6 2 -0.02860467637025524 10.488449352918895 9.14809305018773 0 0 0
603 1 6 2 -4.525763077142367 13.108335025974165 1.781237705586771 0 0 0
637 1 6 2 -9.010198019827081 10.488403965998371 9.14809355102557 1 0 0
639 1 6 2 -13.507027341743605 13.108415771128918 1.781166470320667 1 0 0
82 1 2 0.4648 -5.3470364016997225 13.771978378190118 5.618505810320072 0 0 0
226 1 2 0.4648 -14.328259119595195 13.772184227239638 5.618521217199348 1 0 0
10 1 1 0.5671 -4.676313184542328 13.287768301470463 18.51886748341642 0 0 0
11 1 1 0.5671 -0.249533421006931 10.751267570798499 14.96005981765824 0 0 0
46 1 1 0.5671 -13.65779214655112 13.287594384738142 18.51889852304295 1 0 0
47 1 1 0.5671 -9.231331443791792 10.751132646965882 14.960037658266016 1 0 0
91 1 2 0.4648 -4.399614305383905 12.389666618635365 16.654114322415975 0 0 0
92 1 2 0.4648 -3.4485949207286617 11.591348069308514 18.511211475834266 0 0 0
93 1 2 0.4648 -3.690278755397895 12.267219412564831 20.026816267633183 0 0 0
95 1 2 0.4648 -0.009969561013830496 9.909986639623085 13.083436897991369 0 0 0
97 1 2 0.4648 0.7659459733890855 9.694584967002369 16.405932839002592 0 0 0
98 1 2 0.4648 -0.977047460398573 11.291132771549742 13.09912171542621 0 0 0
235 1 2 0.4648 -13.381635125516608 12.389331555679046 16.65404814101009 1 0 0
236 1 2 0.4648 -12.429735196923207 11.591310778007838 18.511072369577807 1 0 0
237 1 2 0.4648 -12.671431532317275 12.26713618805215 20.026677969322098 1 0 0
239 1 2 0.4648 -8.991191809013845 9.90995855233962 13.083442611476992 1 0 0
241 1 2 0.4648 -8.216044126943038 9.694511128372888 16.40605614434804 1 0 0
242 1 2 0.4648 -9.958172232532997 11.29118018575537 13.098840757070125 1 0 0
281 1 3 0.2225 -0.7045745815141359 11.533154190557498 15.580595278163273 0 0 0
317 1 3 0.2225 -9.68648630249839 11.532991658494042 15.58048967986985 1 0 0
353 1 4 -1 -4.466673199261908 10.509523971822647 14.664998940697874 0 0 0
358 1 4 -1 -2.302906444719449 11.791236428860588 11.01134982509615 0 0 0
360 1 4 -1 -6.7512881971398135 11.826068866593227 10.910151237753691 0 0 0
464 1 4 -1 -8.98210712608149 13.083823703040824 18.306167390708993 1 0 0
466 1 4 -1 -11.28402792581727 11.79166268136669 11.011273415404478 1 0 0
505 1 5 -0.8245 -3.9141859829064924 12.31994960433934 19.0372811205906 0 0 0
506 1 5 -0.8245 -4.773386394130343 13.160439938146348 17.190292374403246 0 0 0
507 1 5 -0.8245 0.5109659587829715 9.760479365509598 15.427378689154535 0 0 0
508 1 5 -0.8245 -0.3774721199077558 10.670858491798556 13.63384026764582 0 0 0
577 1 5 -0.8245 -12.895632201434223 12.319723020804123 19.037197954024794 1 0 0
578 1 5 -0.8245 -13.75495201993223 13.160313533667171 17.1903135818116 1 0 0
579 1 5 -0.8245 -8.470757331932274 9.760440831271294 15.4274336696785 1 0 0
580 1 5 -0.8245 -9.359036798951136 10.670701229147555 13.633808327503152 1 0 0
604 1 6 2 -0.028604627916329447 10.488449435551058 20.154092575972708 0 0 0
606 1 6 2 -4.525763139503025 13.108335097798772 12.787237116071584 0 0 0
640 1 6 2 -9.010197983041593 10.488403959619319 20.154093027780313 1 0 0
642 1 6 2 -13.507027291285732 13.108415799648313 12.787165860359167 1 0 0
94 1 2 0.4648 -5.347036534465413 13.771978459645021 16.62450551827351 0 0 0
238 1 2 0.4648 -14.328259263233305 13.77218431694989 16.62452093058623 1 0 0
643 1 6 2 -13.50102796815868 18.266925679165343 9.148113010750894 1 0 0
15 1 1 0.5671 -9.260683393183141 15.91760939842582 0.2654823071822192 0 0 0
608 1 6 2 -8.987127294753826 15.668097650837511 5.446297971815259 0 0 0
607 1 6 2 -4.519371896176359 18.266978391579126 9.148142404996307 0 0 0
107 1 2 0.4648 -4.500879160018883 17.6880572691845 2.0774312638511163 0 0 0
108 1 2 0.4648 -3.562667334571697 16.810662484075785 3.862385968809662 0 0 0
109 1 2 0.4648 -3.7249798038862587 17.472718120600117 5.399971240646533 0 0 0
112 1 2 0.4648 -8.079884504780841 14.207780885559021 0.17328189309354733 0 0 0
113 1 2 0.4648 -8.288443606638003 14.834414918921778 1.720627400378753 0 0 0
123 1 2 0.4648 -8.942514007207928 15.12825649545453 9.388133481919441 0 0 0
126 1 2 0.4648 -9.927834347942499 16.499453375229557 9.393313054672198 0 0 0
586 1 5 -0.8245 -13.849909764142595 18.44875611832038 2.627826273241927 1 0 0
251 1 2 0.4648 -13.482035719040534 17.68800889446306 2.0774832891878137 1 0 0
252 1 2 0.4648 -12.544054298379118 16.810779907378866 3.8625247143874843 1 0 0
253 1 2 0.4648 -12.706977804734935 17.472673277238805 5.400135282451388 1 0 0
277 1 3 0.2225 -5.147163711156459 14.087982091421214 8.096355711111897 0 0 0
285 1 3 0.2225 -9.720160795140467 16.688664222530303 0.8943058226959147 0 0 0
313 1 3 0.2225 -14.128390605334298 14.087872250628571 8.096415255702315 1 0 0
343 1 4 -1 -6.764012879552975 14.371598542346241 3.6488720560792607 0 0 0
345 1 4 -1 -2.2282558050840677 14.420232342349854 3.576917808600085 0 0 0
350 1 4 -1 -4.503372461044607 15.734267843766771 0.016153896718237644 0 0 0
362 1 4 -1 -8.95743551491119 18.28785027962299 3.6590171914133065 0 0 0
366 1 4 -1 -6.709442030258402 16.937239312178853 7.259164298246413 0 0 0
453 1 4 -1 -11.209902482912012 14.420391282271387 3.576749124256327 1 0 0
458 1 4 -1 -13.48518926462293 15.734150750188714 0.015876314030285037 1 0 0
472 1 4 -1 -11.261571387095517 16.92739624848375 7.329506317624886 1 0 0
474 1 4 -1 -15.690469106311285 16.937170730737307 7.258813048882225 1 0 0
513 1 5 -0.8245 -3.97990532924804 17.53861546894046 4.4214001453062926 0 0 0
514 1 5 -0.8245 -4.868374658036408 18.44894233057315 2.6278254528304026 0 0 0
515 1 5 -0.8245 -8.511738814218262 14.922755121733564 0.7364274735527718 0 0 0
516 1 5 -0.8245 -9.339767095663865 15.873911707932798 -1.0674659127678858 0 0 0
585 1 5 -0.8245 -12.961609502112758 17.538600287072683 4.421490364692331 1 0 0
646 1 6 2 -13.5010279800548 18.266925802291144 20.154112392964887 1 0 0
18 1 1 0.5671 -9.260683466999225 15.917609462315097 11.271481965308544 0 0 0
611 1 6 2 -8.987127236668137 15.66809768146094 16.45229725827409 0 0 0
610 1 6 2 -4.519371858430164 18.266978485122042 20.15414186023716 0 0 0
111 1 2 0.4648 -8.94251403659076 15.128256489373417 20.394132793964232 0 0 -1
114 1 2 0.4648 -9.92783432758064 16.499453349066858 20.399312364594145 0 0 -1
119 1 2 0.4648 -4.5008792822386114 17.688057287066062 13.083430662422257 0 0 0
120 1 2 0.4648 -3.562667533571649 16.810662460536395 14.868385417507474 0 0 0
121 1 2 0.4648 -3.7249798730938064 17.472718093258752 16.405970640845176 0 0 0
124 1 2 0.4648 -8.07988458493836 14.20778089496472 11.17928149787986 0 0 0
125 1 2 0.4648 -8.288443640047424 14.834415007246676 12.726627032662924 0 0 0
592 1 5 -0.8245 -13.849909860373954 18.448756334859546 13.63382596917532 1 0 0
263 1 2 0.4648 -13.482035840418051 17.688008908048285 13.083482670512772 1 0 0
264 1 2 0.4648 -12.544054508141492 16.810779878260597 14.86852414770312 1 0 0
265 1 2 0.4648 -12.706977900926336 17.472673242429167 16.406134662664957 1 0 0
280 1 3 0.2225 -5.147163623898917 14.087981959264251 19.10235548028407 0 0 0
288 1 3 0.2225 -9.72016084809567 16.688664270037393 11.90030542777055 0 0 0
316 1 3 0.2225 -14.128390565499535 14.087872155230773 19.10241505603626 1 0 0
352 1 4 -1 -6.76401284243329 14.371598505882744 14.654871724179154 0 0 0
354 1 4 -1 -2.2282557581888507 14.420232303535723 14.582917358135274 0 0 0
359 1 4 -1 -4.50337250745119 15.73426789952971 11.022153426308853 0 0 0
371 1 4 -1 -8.95743556396318 18.28785028883633 14.665016583774483 0 0 0
375 1 4 -1 -6.709442038526449 16.937239560727424 18.265163830498242 0 0 0
462 1 4 -1 -11.209902455258668 14.420391212075652 14.58274866219261 1 0 0
467 1 4 -1 -13.485189297008592 15.734150869093169 11.021875847015197 1 0 0
481 1 4 -1 -11.261571413507756 16.927396380264142 18.33550589664192 1 0 0
483 1 4 -1 -15.690469114997057 16.93717094771021 18.264812562637633 1 0 0
519 1 5 -0.8245 -3.97990543719639 17.53861552276607 15.427399668022721 0 0 0
520 1 5 -0.8245 -4.868374762079413 18.448942559015038 13.633825141281013 0 0 0
521 1 5 -0.8245 -8.511738798325279 14.92275519104237 11.742427101251756 0 0 0
522 1 5 -0.8245 -9.339767086677183 15.873911735259501 9.938533760113646 0 0 0
591 1 5 -0.8245 -12.961609605737271 17.538600330989514 15.427489885883304 1 0 0
13 1 1 0.5671 -9.167330882389571 21.065949748503566 7.512843432708029 0 0 0
49 1 1 0.5671 -18.148723485103464 21.06574535824112 7.512906710583781 1 0 0
64 1 2 0.4648 -12.570775477275092 21.98650186623386 0.17345415638570216 0 -1 0
65 1 2 0.4648 -12.779507284014363 22.61316972617617 1.720835917795427 0 -1 0
75 1 2 0.4648 -13.433407643591915 22.906891161620806 9.388334588894457 0 -1 0
103 1 2 0.4648 -8.890582685318796 20.167771146161115 5.648060731121298 0 0 0
104 1 2 0.4648 -7.939519274546908 19.369481690693277 7.505214163209543 0 0 0
105 1 2 0.4648 -8.18121990292864 20.04540660689994 9.020753196704975 0 0 0
106 1 2 0.4648 -9.838034804826979 21.550031914835255 5.618390487263703 0 0 0
110 1 2 0.4648 -5.4679335257720645 19.069212726730445 2.0930763375285815 0 0 0
247 1 2 0.4648 -17.87252180664492 20.16746006981041 5.648060660931258 1 0 0
248 1 2 0.4648 -16.92059473070351 19.369516464523837 7.505129942041461 1 0 0
249 1 2 0.4648 -17.162330877808856 20.045359700739514 9.02071288005137 1 0 0
250 1 2 0.4648 -18.819226137679514 21.550248684083893 5.618508420212583 1 0 0
254 1 2 0.4648 -14.449091360297466 19.06918681491825 2.092861398932429 1 0 0
283 1 3 0.2225 -9.63810637295084 21.866186965604197 8.096298589266375 0 0 0
284 1 3 0.2225 -5.195488962233178 19.31126533310341 4.574558341800167 0 0 0
319 1 3 0.2225 -18.61933762358092 21.86602742310238 8.096404262157133 1 0 0
320 1 3 0.2225 -14.177425032248525 19.311079709490116 4.574489028067774 1 0 0
361 1 4 -1 -11.254923074596867 22.14983449509798 3.6490148356501604 0 0 0
363 1 4 -1 -6.71910596445525 22.198436327621245 3.576926354516472 0 0 0
367 1 4 -1 -6.793747089133085 19.56958072511323 0.005333741600945711 0 0 0
369 1 4 -1 -11.242120662535552 19.60449767186706 -0.09582386115385694 0 0 0
471 1 4 -1 -15.70078010085258 22.198514997782656 3.57691333612086 1 0 0
473 1 4 -1 -13.473101076333458 20.862087783796404 7.300210093708164 1 0 0
475 1 4 -1 -15.774773602022217 19.570048744068135 0.00528567447098721 1 0 0
491 1 5 -0.8245 -13.002730810153905 22.701454238540226 0.7365908459340167 0 -1 0
511 1 5 -0.8245 -8.405114942434649 20.098158588361326 8.031223317662171 0 0 0
512 1 5 -0.8245 -9.264358889229653 20.93857036486573 6.184257875554549 0 0 0
583 1 5 -0.8245 -17.386527720706063 20.09791566696682 8.031236271963337 1 0 0
584 1 5 -0.8245 -18.245912156518045 20.938407272566803 6.1843308242413295 1 0 0
609 1 6 2 -9.016660349854373 20.886699435037176 1.7811509174917917 0 0 0
645 1 6 2 -17.997780142312912 20.886710366107263 1.7811132309599933 1 0 0
14 1 1 0.5671 -4.7404574140810105 18.529360521777093 3.9540532131521817 0 0 0
50 1 1 0.5671 -13.722238026263815 18.529227636514985 3.9540620491139005 1 0 0
16 1 1 0.5671 -9.167330926707717 21.06594976549491 18.51884324800257 0 0 0
52 1 1 0.5671 -18.148723586965193 21.06574545784144 18.518906621329776 1 0 0
63 1 2 0.4648 -13.433407704847841 22.90689115588136 20.394333915348426 0 -1 -1
76 1 2 0.4648 -12.57077554243102 21.98650187083823 11.17945377402986 0 -1 0
77 1 2 0.4648 -12.77950732577237 22.613169817352873 12.726835535388211 0 -1 0
115 1 2 0.4648 -8.890582748639318 20.16777103988772 16.654060409505956 0 0 0
116 1 2 0.4648 -7.939519324769636 19.369481613840346 18.51121384456702 0 0 0
117 1 2 0.4648 -8.181219856376135 20.04540675532786 20.0267528126246 0 0 0
118 1 2 0.4648 -9.838034946416602 21.550031995760452 16.6243902063176 0 0 0
122 1 2 0.4648 -5.467933779085983 19.069213026444167 13.099075882098601 0 0 0
259 1 2 0.4648 -17.872521853783624 20.167459924752816 16.65406034248169 1 0 0
260 1 2 0.4648 -16.920594781266217 19.369516390619726 18.51112960092957 1 0 0
261 1 2 0.4648 -17.162330890604153 20.045359857334255 20.02671253025394 1 0 0
262 1 2 0.4648 -18.819226271599263 21.550248793566368 16.62450814332121 1 0 0
266 1 2 0.4648 -14.449091583769027 19.06918711268898 13.098860950337633 1 0 0
286 1 3 0.2225 -9.638106314481169 21.866186894228434 19.10229839429747 0 0 0
287 1 3 0.2225 -5.19548896654957 19.31126530662245 15.580557943276427 0 0 0
322 1 3 0.2225 -18.61933755549709 21.866027301017695 19.102404022959124 1 0 0
323 1 3 0.2225 -14.177425052302222 19.311079713165693 15.580488648000925 1 0 0
370 1 4 -1 -11.254922996345503 22.149834460924367 14.65501444743356 0 0 0
372 1 4 -1 -6.719105948303853 22.19843627638396 14.582925889660054 0 0 0
376 1 4 -1 -6.793747115435687 19.569580728400314 11.011333038740277 0 0 0
378 1 4 -1 -11.242120742210684 19.604497782637768 10.910175567327386 0 0 0
480 1 4 -1 -15.700780125018836 22.198514931360016 14.582912855915259 1 0 0
482 1 4 -1 -13.473101059178418 20.862087870171187 18.306209717587304 1 0 0
484 1 4 -1 -15.774773712772458 19.570048755441857 11.011284987376456 1 0 0
497 1 5 -0.8245 -13.002730812028961 22.701454270288334 11.742590507969915 0 -1 0
517 1 5 -0.8245 -8.40511491426957 20.09815864957094 19.037223040279414 0 0 0
518 1 5 -0.8245 -9.264358998619725 20.93857038943422 17.190257765890852 0 0 0
589 1 5 -0.8245 -17.386527775006048 20.097915782629386 19.037235995419042 1 0 0
590 1 5 -0.8245 -18.24591230392465 20.938407290845262 17.190330758919206 1 0 0
612 1 6 2 -9.016660345940664 20.8866994266243 12.787150374248155 0 0 0
648 1 6 2 -17.997780074224103 20.886710370767673 12.78711274345708 1 0 0
17 1 1 0.5671 -4.740457452348627 18.5293605183413 14.960053040332774 0 0 0
53 1 1 0.5671 -13.72223804104303 18.529227570606253 14.960061821359039 1 0 0
20 1 1 0.5671 13.222464929447462 2.9725776647947244 3.9540213854841215 0 0 0
21 1 1 0.5671 8.702961120241339 0.3611269528712157 0.2656673614925802 0 0 0
39 1 1 0.5671 17.684403133498098 0.36136264437235843 0.2655137565919259 0 0 0
128 1 2 0.4648 10.02416767380101 3.8126489710033193 7.505400350799054 0 0 0
131 1 2 0.4648 13.462728651282376 2.131322988129602 2.077482578788594 0 0 0
132 1 2 0.4648 14.400183910692476 1.2538417508104935 3.862496061707611 0 0 0
133 1 2 0.4648 14.237448256506298 1.9157371246912827 5.400121032487825 0 0 0
134 1 2 0.4648 12.495162351680952 3.512141680091584 2.092914735049052 0 0 0
150 1 2 0.4648 8.035873874421839 0.9433062846153334 9.393647007183592 0 0 0
222 1 2 0.4648 17.016798367588017 0.9431952630229339 9.393571678531547 0 0 0
290 1 3 0.2225 12.76724679849417 3.7544091930350634 4.574467857619808 0 0 0
291 1 3 0.2225 8.243680833027431 1.1322337926209605 0.8945328715200672 0 0 0
309 1 3 0.2225 17.225094086192062 1.1324612534605403 0.8944118760318811 0 0 0
328 1 4 -1 6.70196692484381 1.3706968347650743 7.32942222359024 0 0 0
380 1 4 -1 9.005581542930063 2.731060990456728 3.6588110784009777 0 0 0
382 1 4 -1 15.68281708157778 1.3702396487964097 7.329468071218938 0 0 0
384 1 4 -1 11.254292630219702 1.3803498798375218 7.259055877094192 0 0 0
385 1 4 -1 11.169760551249045 4.012978303834265 0.005342563560657805 0 0 0
387 1 4 -1 6.722026251961501 4.047700859613134 -0.09630698328736134 0 0 0
422 1 4 -1 13.460243342915886 0.17749830152767826 0.015952866743210895 0 1 0
434 1 4 -1 17.987094381088863 2.731106853266893 3.6589342818968773 0 0 0
441 1 4 -1 15.70309635977876 4.047691403036236 -0.0958833671525295 0 0 0
525 1 5 -0.8245 13.982996653061056 1.9818775025754065 4.4214452989047635 0 0 0
526 1 5 -0.8245 13.094776777986667 2.8920548065081926 2.627791674900266 0 0 0
528 1 5 -0.8245 8.623733718535615 0.31747692996126864 -1.0672579124365538 0 0 0
564 1 5 -0.8245 17.605144051847855 0.31772998205627245 -1.0674252263896502 0 0 0
613 1 6 2 13.443613150872118 2.7101071042444342 9.148144499113787 0 0 0
614 1 6 2 8.976612806199702 0.11139946714115716 5.446259405831734 0 0 0
632 1 6 2 17.95784028954512 0.11144429897254532 5.446258906367347 0 0 0
129 1 2 0.4648 9.782156252114287 4.4884987337983535 9.020929488763468 0 0 0
23 1 1 0.5671 13.222464949011039 2.9725775860537484 14.960021150913212 0 0 0
24 1 1 0.5671 8.702961080517019 0.36112701839688394 11.271667072976085 0 0 0
42 1 1 0.5671 17.684403097892343 0.36136272079399767 11.271513417514024 0 0 0
138 1 2 0.4648 8.035873915766611 0.9433062412962901 20.39964628890088 0 0 -1
140 1 2 0.4648 10.024167596587986 3.8126489083591553 18.51140005779906 0 0 0
143 1 2 0.4648 13.462728521825033 2.131322979878651 13.083481973666926 0 0 0
144 1 2 0.4648 14.400183716745374 1.253841709353744 14.868495530041491 0 0 0
145 1 2 0.4648 14.237448167067837 1.9157370863086476 16.40612040776856 0 0 0