LAMMPS data file via write_data, version 23 Jun 2022, timestep = 0

648 atoms
6 atom types
378 bonds
3 bond types
486 angles
4 angle types
432 dihedrals
2 dihedral types
162 impropers
2 improper types

-6.965651855690456 20.42865185569083 xlo xhi
-0.48618715828946624 23.49118615828982 ylo yhi
-1.4641947268183992 21.113193726818565 zlo zhi
-14.207076043161756 0.26785215833402537 -0.16663018243131342 xy xz yz

Masses

1 12.01
2 1.008
3 1.008
4 126.900002
5 14.01
6 207.199997

Bond Coeffs # harmonic

1 340.4 1.08
2 448 1.365
3 434 1.01

Angle Coeffs # harmonic

1 35 120
2 35 113
3 35 119.1
4 70 120

Dihedral Coeffs # opls

1 0 3.9 0 0
2 0 3.9 0 0

Improper Coeffs # cvff

1 2.5 -1 2
2 2.5 -1 2

Atoms # full

206 1 2 0.4648 -5.944852115593167 0.4747106447951771 3.5129366557478265 1 0 0
61 1 2 0.4648 2.9182854978660986 3.929735678098748 3.092380201735733 0 0 0
38 1 1 0.5671 -4.860165953812186 2.254791972457125 3.7610921905024655 1 0 0
492 1 5 -0.8245 -0.7724711077834362 0.7940992201656264 0.16189344296816574 0 0 0
595 1 6 2 4.329257948192193 2.344505101506028 9.145904615537544 0 0 0
201 1 2 0.4648 -7.892330624283712 4.157082748965919 8.864577844169942 1 0 0
631 1 6 2 -4.413922758898441 2.341845539204384 9.060334087190002 1 0 0
368 1 4 -1 4.302056493761664 -0.0733558257730693 -0.0190154662885522 0 1 0
561 1 5 -0.8245 -4.5787673312521235 3.29408804881353 2.9511270468658024 1 0 0
331 1 4 -1 1.7762051223834492 3.946857911783991 -0.20335549101084066 0 0 0
63 1 2 0.4648 -0.9475101175729979 0.6590528740173353 1.1476490462303894 0 0 0
596 1 6 2 -0.15084830692683326 0.05715788322044459 5.405063180075745 0 0 0
272 1 3 0.2225 3.41788711989306 1.437856716062809 2.493448198826374 0 0 0
204 1 2 0.4648 -5.145013962111574 3.428677924188559 2.1257422503186123 1 0 0
203 1 2 0.4648 -5.822920813273594 1.5102033739926322 2.133644490509263 1 0 0
562 1 5 -0.8245 -5.64171083483898 1.3519223651226187 3.1147000379974976 1 0 0
205 1 2 0.4648 -4.048575334870091 4.1274715260078985 3.1613441246604745 1 0 0
326 1 4 -1 -0.21763543517551878 2.7006791722262498 3.70482882411082 0 0 0
330 1 4 -1 1.9515479318157454 1.0664234254506972 7.7883332662833435 0 0 0
476 1 4 -1 -5.001302679123829 -0.30369352573778385 -0.1726099780733801 1 1 0
66 1 2 0.4648 -1.120579992767318 1.675350539681106 -0.18741939860022824 0 0 0
308 1 3 0.2225 -4.371519974290933 2.1440337836222145 4.717853209784945 1 0 0
436 1 4 -1 -2.582968529263083 0.7483304035320586 6.976654925966139 1 0 0
438 1 4 -1 -6.9173851276050815 1.0533035500189345 7.350219567143723 1 0 0
439 1 4 -1 -7.042212864212394 3.3726605356308985 -0.11598595041503501 1 0 0
2 1 1 0.5671 4.0252938211066756 2.1146384746743907 3.075831748142662 0 0 0
333 1 4 -1 -2.584272989658046 3.8047589351127105 -0.20263245614824588 0 0 0
56 1 2 0.4648 -0.9333810784654021 4.011402958216322 8.531841616982161 0 0 0
489 1 5 -0.8245 3.745594975748474 3.428519579660611 3.382320958193255 0 0 0
3 1 1 0.5671 -0.10937460096051566 -0.014599784710805511 -0.6147961182595489 0 0 0
57 1 2 0.4648 0.6398442439236262 3.7387330180710032 8.121074758823747 0 0 0
490 1 5 -0.8245 5.257854292171751 1.7874104091844258 3.559062604460256 0 0 0
62 1 2 0.4648 5.696542731537833 0.8866634930059885 3.4324699169474173 0 0 0
307 1 3 0.2225 -8.188890534269474 3.7501653578281635 6.527010044201247 1 0 0
568 1 5 -0.8245 -4.9954838057768916 3.307202754923576 14.513928162079052 1 0 0
217 1 2 0.4648 -3.3242608232639648 0.6219417396896936 14.981545371653807 1 0 0
41 1 1 0.5671 -4.004203269357639 2.571433306394802 15.066100073659483 1 0 0
634 1 6 2 -4.58141921666235 2.3417368586556457 20.296921222103474 1 0 0
76 1 2 0.4648 -0.7105410541763109 -0.05531987791504915 12.507737670043545 0 0 0
74 1 2 0.4648 3.504565491813516 2.9192276852675523 13.024940251709621 0 0 0
71 1 2 0.4648 2.665785450040284 2.6414188422496063 14.405904136465763 0 0 0
485 1 4 -1 -4.315904235016084 -0.3964782972673839 11.08333486556724 1 1 0
598 1 6 2 4.324675967044025 2.217662276519172 20.551277314473104 0 0 0
342 1 4 -1 -2.4013715994748 3.8454516459547348 10.748499620494231 0 0 0
599 1 6 2 0.07617971502015179 -0.3189664841429907 16.888704080870962 0 0 0
215 1 2 0.4648 -5.694589270640903 2.9047881389788306 13.906325142746626 1 0 0
567 1 5 -0.8245 -3.997481124250202 1.280347452893253 14.616810230584685 1 0 0
311 1 3 0.2225 -3.2978634303390812 2.9092414735067593 15.809843199696607 1 0 0
496 1 5 -0.8245 3.590075735502577 2.666893969766811 13.999320358127294 0 0 0
70 1 2 0.4648 0.030376110667542956 3.5924361873950432 17.100694612413537 0 0 0
494 1 5 -0.8245 -0.010209839723559872 4.145980159037612 17.944640618500713 0 0 0
335 1 4 -1 -0.3236125623851026 2.3174004322253925 15.08823747998722 0 0 0
339 1 4 -1 2.1082459517199426 0.8586197765822657 18.705264413415083 0 0 0
214 1 2 0.4648 -8.236193958008961 3.129304660995247 17.43800623277806 1 0 0
448 1 4 -1 -6.674406742007188 3.5660669339975106 11.125205498575324 1 0 0
72 1 2 0.4648 3.8038283527934196 2.4096535734794444 16.480160356203946 0 0 0
445 1 4 -1 -2.078650629031683 1.1517913278220098 18.804968241218766 1 0 0
447 1 4 -1 -6.572392419308976 1.1893739434474697 18.33833595783699 1 0 0
497 1 5 -0.8245 0.20116106801266126 -0.2644338171755328 12.126619252560738 0 0 0
67 1 2 0.4648 -0.31532886716519737 3.551043294955848 18.701847477234086 0 0 0
216 1 2 0.4648 -4.484995237195083 0.9541659091834291 13.79462317543535 1 0 0
5 1 1 0.5671 4.7254606232414496 2.266679472658642 14.556145596487232 0 0 0
495 1 5 -0.8245 4.622931550871094 2.1601574536332993 15.94436328235693 0 0 0
73 1 2 0.4648 5.363667446139826 1.852261019922792 16.557821595986184 0 0 0
77 1 2 0.4648 0.8922061207680181 -0.43711828250652174 12.842533116884296 0 0 0
377 1 4 -1 4.3762587565681095 -0.4103945861135881 10.83538751002695 0 1 0
273 1 3 0.2225 0.31437376805406075 0.00502039907751493 20.910006801892845 0 0 -1
566 1 5 -0.8245 -8.515362625062776 4.058769315100573 17.71743535211127 1 0 0
75 1 2 0.4648 -1.8529457943380252 -0.4599005736108893 10.664215748211264 0 0 0
504 1 5 -0.8245 -5.925056500637 7.571067576412632 -0.8672904723190599 0 0 0
9 1 1 0.5671 -4.768699422733561 8.039503502830526 -0.32046878517235133 0 0 0
327 1 4 -1 2.0115903712380434 6.361068125375951 3.4620258890270783 0 0 0
55 1 2 0.4648 -2.099343421586321 5.596349825170968 7.180742712842983 0 0 0
633 1 6 2 -9.378030197456667 4.935006969075301 1.3497938025661689 1 0 0
560 1 5 -0.8245 -9.303128497853738 5.562862337928107 6.433964760939741 1 0 0
101 1 2 0.4648 -4.9354065047607945 6.715646779126182 8.979661585214254 0 0 0
37 1 1 0.5671 -8.615309396999098 4.588760864852189 7.057378070698173 1 0 0
202 1 2 0.4648 -9.23054672303064 5.695513554699103 5.435124632750702 1 0 0
279 1 3 0.2225 -4.781510370337396 8.886290664689149 0.3497328378816313 0 0 0
559 1 5 -0.8245 -8.469233191523088 4.800751623878672 8.34238607015717 1 0 0
597 1 6 2 -0.4735011449103388 5.160311557410177 1.7624387639665495 0 0 0
602 1 6 2 -5.175111052201951 7.6884677150699545 4.892303557911791 0 0 0
440 1 4 -1 -9.487393877068676 7.642387141001796 -0.4820777429472534 1 0 0
58 1 2 0.4648 -1.2632327886726884 7.001060495658965 6.815272284465251 0 0 0
271 1 3 0.2225 0.9351148178472035 5.8342176462400035 7.070075109777699 0 0 0
1 1 1 0.5671 -0.050154370540597626 5.463020576893531 7.310472387153302 0 0 0
199 1 2 0.4648 -9.771393867721939 6.338150109384337 6.880839865406666 1 0 0
325 1 4 -1 -2.624149948451501 6.601645445168107 3.5149441154848557 0 0 0
488 1 5 -0.8245 -1.1976039063857378 6.049987409510235 7.148454210344132 0 0 0
332 1 4 -1 -0.4568800673891486 8.121313967657848 -0.10104286773879677 0 0 0
88 1 2 0.4648 -3.733377097315769 6.480201267873864 -1.3440796768487469 0 0 0
435 1 4 -1 -7.323941527869516 6.444335551987113 3.2455757122802096 1 0 0
437 1 4 -1 -4.655080271054034 4.5956976012273465 6.985562978100118 1 0 0
503 1 5 -0.8245 -3.7565718602389517 7.2878518362649665 -0.7380891382537402 0 0 0
230 1 2 0.4648 -10.43084218135676 8.831793415387338 2.847104358796164 1 0 0
89 1 2 0.4648 -2.8863711878115486 7.644152835673619 -0.36986611960457033 0 0 0
454 1 4 -1 -7.318249303561175 8.779619793395952 7.12545727601023 1 0 0
90 1 2 0.4648 -6.885212001746396 7.78416513497938 -0.6378390304284869 0 0 0
200 1 2 0.4648 -8.898679724024529 5.504079061994328 8.926375127054934 1 0 0
100 1 2 0.4648 -3.481260407303005 7.42887988072435 9.267297583859756 0 0 0
487 1 5 -0.8245 -0.17589749949160385 4.302594128239563 7.9303823495908485 0 0 0
456 1 4 -1 -11.403127447339292 9.023466460689809 7.190023061217824 1 0 0
509 1 5 -0.8245 -4.389235425065872 7.224556179321549 9.659853700936138 0 0 0
282 1 3 0.2225 -5.94389756088522 7.31205661237127 11.051376818443858 0 0 0
12 1 1 0.5671 -4.903360809579911 7.545037821164488 10.880022332844822 0 0 0
68 1 2 0.4648 0.275500777289256 5.159045504600819 20.27047096298036 0 0 0
4 1 1 0.5671 0.17154979370734133 5.454908237618861 18.171987601995532 0 0 0
636 1 6 2 -9.21941264708908 4.844342733864178 12.960184461621784 1 0 0
212 1 2 0.4648 -9.385309289421281 6.501026513590441 17.896108877186784 1 0 0
69 1 2 0.4648 0.022278224606316448 6.734358545696549 19.76283732998663 0 0 0
274 1 3 0.2225 0.24372472480887936 6.1518806737527125 17.350019513507135 0 0 0
336 1 4 -1 1.8764202115212418 6.36420804893402 14.806904598899647 0 0 0
213 1 2 0.4648 -10.074232087407859 6.135912913941607 19.321738720516812 1 0 0
510 1 5 -0.8245 -4.262757065033375 8.474449572058042 11.566296895362358 0 0 0
99 1 2 0.4648 -3.304470363143897 8.665326744863838 11.310761764197915 0 0 0
605 1 6 2 -4.575158299983221 7.744612033428865 16.889543802453034 0 0 0
40 1 1 0.5671 -9.5929312568275 4.412236548054853 18.382332921634827 1 0 0
463 1 4 -1 -6.918794255191802 8.91024232147615 18.795396323228683 1 0 0
493 1 5 -0.8245 0.04100881931794918 5.761070430449724 19.49412848630669 0 0 0
340 1 4 -1 2.3224813866342644 4.326680008861203 11.060939522060158 0 0 0
565 1 5 -0.8245 -9.593301673077448 5.739817161418371 18.526566938678208 1 0 0
334 1 4 -1 -2.562035355453217 6.3721095562432195 14.945133405250536 0 0 0
449 1 4 -1 -9.05141742782257 7.735299661841564 11.17209066392747 1 0 0
341 1 4 -1 -0.5626138253290086 8.065860754155995 11.112643408464539 0 0 0
600 1 6 2 -0.3548187232964369 5.423766111179192 12.807572429937126 0 0 0
444 1 4 -1 -6.867165143700325 6.229382740175357 15.23196831427702 1 0 0
446 1 4 -1 -4.509847698562868 5.194442966638715 19.010276522482823 1 0 0
218 1 2 0.4648 -5.0817253696565015 4.293826542237312 14.71132993196249 1 0 0
211 1 2 0.4648 -7.882511140630707 4.7084296910615 17.2729115997868 1 0 0
246 1 2 0.4648 -11.785946015791106 7.973204773567722 11.037015375507332 1 0 0
87 1 2 0.4648 -5.639920716369467 6.6807281093838755 21.00574945602036 0 0 -1
501 1 5 -0.8245 -0.05848288962892015 10.912621485163728 2.303294174635117 0 0 0
83 1 2 0.4648 -1.9587347782802207 10.324214250693865 3.609707293446642 0 0 0
502 1 5 -0.8245 -1.1087440920927885 9.95432885407641 4.010253265238382 0 0 0
44 1 1 0.5671 -9.682031650653549 10.5882322371923 3.787158267411728 1 0 0
314 1 3 0.2225 -10.384891161811952 10.718654815672535 4.596985365519252 1 0 0
601 1 6 2 -0.27869111913511635 10.742590702671873 8.997993388872944 0 0 0
573 1 5 -0.8245 -8.51260296846593 11.227761952768473 3.6402318944814303 1 0 0
639 1 6 2 -13.990458028683154 12.884795904815434 1.7464853558542754 1 0 0
574 1 5 -0.8245 -9.740138100773413 9.567147758412231 2.892274681239114 1 0 0
86 1 2 0.4648 -1.0643330531319528 9.52383448778808 4.922987258925346 0 0 0
229 1 2 0.4648 -8.333816405427097 12.09508228974448 4.125733814187821 1 0 0
603 1 6 2 -4.8595461324497995 13.233743941788058 1.6005174537772193 0 0 0
637 1 6 2 -9.299212931081 10.421000843392497 8.934126197657195 1 0 0
84 1 2 0.4648 -0.9412859574330397 11.139081891038995 1.8684072483146386 0 0 0
226 1 2 0.4648 -12.465581248088286 13.195564250921933 8.542874476069924 1 0 0
500 1 5 -0.8245 -4.699722164988568 12.057146598599568 7.98706960250439 0 0 0
43 1 1 0.5671 -13.762538545282306 13.261851887119265 6.885591549208913 1 0 0
7 1 1 0.5671 -4.561751684562579 12.681838339857778 6.799151415583969 0 0 0
344 1 4 -1 -4.657233267094543 10.426528481761554 3.273266046737666 0 0 0
349 1 4 -1 -2.4846807270950886 12.35813794641986 -0.16017394498444804 0 0 0
351 1 4 -1 -7.092041005123018 11.781500691676264 0.006767442262700666 0 0 0
455 1 4 -1 -8.927792077965513 13.104299276534602 7.293020982616457 1 0 0
457 1 4 -1 -11.660109924126868 11.786969481243133 -0.35510925277568167 1 0 0
223 1 2 0.4648 -13.82758197557219 12.324873219021933 8.71675384116858 1 0 0
82 1 2 0.4648 -4.2434900001934 11.176272652782174 8.175924847240589 0 0 0
348 1 4 -1 -2.5515960062520064 9.247663890349 7.085293107504883 0 0 0
572 1 5 -0.8245 -13.258738043086222 12.818977715582177 8.043977949559098 1 0 0
228 1 2 0.4648 -8.116909167797667 11.224852535263125 2.7106881277933867 1 0 0
277 1 3 0.2225 -4.007738705909409 12.325456916783784 5.943055621420746 0 0 0
79 1 2 0.4648 -5.168632720411303 12.559139092005667 8.727700901660137 0 0 0
8 1 1 0.5671 0.05024722461906311 10.072893638175039 3.3729698331443445 0 0 0
227 1 2 0.4648 -8.912032052171137 9.31519580129426 2.3716705736603507 1 0 0
499 1 5 -0.8245 -5.218986399128167 13.836137624290172 6.793644127681338 0 0 0
93 1 2 0.4648 -5.309337547134295 11.885273223683795 16.821041046515273 0 0 0
97 1 2 0.4648 -0.9518910451132094 11.667356682007497 13.283078655571673 0 0 0
465 1 4 -1 -11.373692370058366 9.151028567561461 18.311754903030426 1 0 0
47 1 1 0.5671 -9.54094288936174 10.19201288161133 14.513096843325348 1 0 0
316 1 3 0.2225 -12.559126357154552 13.209639679684592 19.369246085597343 1 0 0
640 1 6 2 -9.104290129910966 10.358903250742198 20.250146476557468 1 0 0
642 1 6 2 -13.728707935057583 12.801956901289968 12.926346063567104 1 0 0
606 1 6 2 -4.911252643987501 13.072942988966993 12.75564573999465 0 0 0
46 1 1 0.5671 -13.522110808811057 12.880003841315148 19.00865908207481 1 0 0
317 1 3 0.2225 -10.525271108871179 9.819658298853511 14.271242673106107 1 0 0
10 1 1 0.5671 -4.480806546090123 12.691738016723466 18.515704921483433 0 0 0
357 1 4 -1 -2.302311977154921 9.445422424861903 18.61245472456151 0 0 0
280 1 3 0.2225 -3.8570827602839475 11.862808568849678 18.815511987949748 0 0 0
604 1 6 2 0.049891710330608886 10.444322149505862 20.408169209639368 0 0 0
507 1 5 -0.8245 -0.5917803117496999 11.522781721549512 14.215621498744119 0 0 0
241 1 2 0.4648 -10.07561609200454 11.118666498353 16.23095047808095 1 0 0
240 1 2 0.4648 -8.424272704360183 11.399628826538933 15.704023551330765 1 0 0
578 1 5 -0.8245 -13.562984185996807 12.475003106214896 17.733822896228535 1 0 0
353 1 4 -1 -4.908292007892432 10.525976283062562 14.77579172406905 0 0 0
358 1 4 -1 -2.424438147717886 11.952754501512333 11.207693395299406 0 0 0
360 1 4 -1 -7.030598576403003 11.780511080663485 10.80960693295331 0 0 0
464 1 4 -1 -9.203742593609801 13.058178399983198 18.335284307185745 1 0 0
466 1 4 -1 -11.320276945812077 11.367809909886704 11.110476417904087 1 0 0
92 1 2 0.4648 -6.1424317497959855 13.28184677663113 17.394271246766742 0 0 0
580 1 5 -0.8245 -8.60130244747541 9.980528678926786 13.611865263598018 1 0 0
579 1 5 -0.8245 -9.342239395633094 11.009961565364707 15.544818688963696 1 0 0
505 1 5 -0.8245 -5.37829131739397 12.63013770141936 17.499688361083493 0 0 0
239 1 2 0.4648 -7.615420794036633 9.952036846089984 13.828657315644362 1 0 0
96 1 2 0.4648 -1.0996609277318234 12.084859652528074 14.883769483906322 0 0 0
238 1 2 0.4648 -12.76711159407356 12.174198905356885 17.18940949902011 1 0 0
281 1 3 0.2225 0.4324847926505838 9.681413001674766 13.814182231803139 0 0 0
242 1 2 0.4648 -8.79316843884323 9.54506093887029 12.720904598964138 1 0 0
577 1 5 -0.8245 -14.729382972838868 13.22979903946132 19.528197777727556 1 0 0
102 1 2 0.4648 -4.747477999797694 9.090671353514784 12.203101004023376 0 0 0
643 1 6 2 -14.016216102513468 18.296833510179276 9.060898953236252 1 0 0
15 1 1 0.5671 -9.097585686760894 15.754815775049051 -0.07022478420078977 0 0 0
608 1 6 2 -9.363128318924675 16.17761090094163 5.293718356315539 0 0 0
108 1 2 0.4648 -4.806066774770409 17.207043112728982 3.1346191867467104 0 0 0
285 1 3 0.2225 -9.121073098595433 15.576615830147096 0.9949268735202582 0 0 0
474 1 4 -1 -16.567502916157984 17.06260571254854 7.346029854274158 1 0 0
458 1 4 -1 -14.338480385153975 15.850143221251093 -0.3618765835774063 1 0 0
50 1 1 0.5671 -13.696186805203462 17.981358635811134 3.181133688588766 1 0 0
453 1 4 -1 -11.581111109003285 14.752716610425765 3.7193843666698307 1 0 0
113 1 2 0.4648 -7.784244699354498 14.229904596895064 -0.803450546135409 0 0 0
320 1 3 0.2225 -12.783155746928916 17.499707016775492 2.86378292557828 1 0 0
515 1 5 -0.8245 -8.421578033804487 14.990091335231336 -0.9922844886578401 0 0 0
513 1 5 -0.8245 -4.185321291351805 17.988084364509913 3.2910732268394196 0 0 0
81 1 2 0.4648 -5.190701211064855 14.530393065730838 6.06056931572588 0 0 0
254 1 2 0.4648 -14.96690041190986 17.341061763234624 1.7952328982816474 1 0 0
586 1 5 -0.8245 -14.81937911350162 18.032392174399444 2.5166365892397256 1 0 0
345 1 4 -1 -2.4440602871189023 14.541972362280452 3.5448433164648643 0 0 0
472 1 4 -1 -11.565594725535762 17.259020866159574 7.314629179025778 1 0 0
251 1 2 0.4648 -15.684658191414625 18.230870660700948 2.9984646538027016 1 0 0
343 1 4 -1 -7.2097916610962365 14.819712956315872 3.3199594424682446 0 0 0
350 1 4 -1 -4.648449666560041 15.920082808073284 -0.08562805219360045 0 0 0
126 1 2 0.4648 -8.683041231431508 16.312569659851558 9.394805798764926 0 0 0
366 1 4 -1 -6.938833789935159 17.137655775986666 7.21687035824874 0 0 0
362 1 4 -1 -9.545113792982347 18.43042727283411 3.1499456192035766 0 0 0
516 1 5 -0.8245 -9.728956740353048 16.74485336639503 -0.6342806858664048 0 0 0
114 1 2 0.4648 -10.29324549126529 17.438629630244787 -0.16491749655490037 0 0 0
607 1 6 2 -4.976313986895657 18.591629710812743 8.76917576827113 0 0 0
313 1 3 0.2225 -13.170113824492 13.941695376619949 6.291086951110326 1 0 0
253 1 2 0.4648 -13.26543545550437 18.430419684983317 5.25162507468748 1 0 0
80 1 2 0.4648 -5.9725995258974995 14.116592508688417 7.405007944947821 0 0 0
585 1 5 -0.8245 -13.87635462542514 18.424538701628194 4.447427836539373 1 0 0
111 1 2 0.4648 -9.564887164213118 16.61548965683488 20.938978286522726 0 0 -1
18 1 1 0.5671 -9.905393025444441 15.793827289957187 10.971132008315552 0 0 0
611 1 6 2 -9.430229839846419 15.754863379926357 16.364295713722207 0 0 0
467 1 4 -1 -13.873133610829509 15.474764976362541 10.751365615218903 1 0 0
462 1 4 -1 -11.751227098471539 14.314252659728663 14.760603306218341 1 0 0
352 1 4 -1 -7.265001815433462 14.362504342471022 14.552817137564285 0 0 0
266 1 2 0.4648 -15.195918816687916 16.661797082298445 14.412717960868124 1 0 0
53 1 1 0.5671 -14.216319808057333 18.371962343977714 15.098226999340506 1 0 0
354 1 4 -1 -2.6631412683418176 14.62683678923254 14.539953596316279 0 0 0
481 1 4 -1 -11.784323864161246 17.009146305669745 18.26996793947924 1 0 0
91 1 2 0.4648 -5.120269332114289 14.696739404066795 18.756509454461046 0 0 0
521 1 5 -0.8245 -9.818827352414289 15.006899968929188 12.075641487792629 0 0 0
371 1 4 -1 -9.298320150706257 18.503607574058833 14.621589384531935 0 0 0
592 1 5 -0.8245 -14.645321712657495 17.47754898706815 14.18606762563646 1 0 0
483 1 4 -1 -16.118590986836697 16.78980880019708 18.56101407399043 1 0 0
610 1 6 2 -4.835386644843564 18.385290723331018 20.63275221589367 0 0 0
522 1 5 -0.8245 -8.810317620716091 15.788817728972573 10.249135144992204 0 0 0
119 1 2 0.4648 -5.9184818719182095 18.01850600436934 13.342342968482603 0 0 0
17 1 1 0.5671 -4.691204473713492 17.76650202624578 15.053957024888637 0 0 0
323 1 3 0.2225 -14.510028435955784 18.431693053880196 16.136079831397314 1 0 0
359 1 4 -1 -5.069271670056993 15.789717952853843 10.855352815504522 0 0 0
263 1 2 0.4648 -14.323760828620616 17.621380565437466 13.239205624681722 1 0 0
375 1 4 -1 -7.040654700741996 16.793502391006296 18.74127445215953 0 0 0
125 1 2 0.4648 -10.655089002279748 14.812418871715813 12.607779027113933 0 0 0
122 1 2 0.4648 -4.30444537463106 17.52588044006241 12.99645007081533 0 0 0
520 1 5 -0.8245 -4.98350372848431 17.835591279129865 13.67716912393094 0 0 0
646 1 6 2 -14.124435433650106 18.203759426548555 20.31130911856193 1 0 0
123 1 2 0.4648 -7.951277154620694 15.644911787332253 10.760131216219255 0 0 0
124 1 2 0.4648 -9.04653683021852 14.36599706177337 12.187731947782895 0 0 0
112 1 2 0.4648 -8.163880659729877 15.148668817940429 20.62877006616076 0 0 -1
94 1 2 0.4648 -3.9703947021095534 14.16157558208801 19.85743930366533 0 0 0
288 1 3 0.2225 -10.895138390114061 16.032640868234175 10.61148255753273 0 0 0
519 1 5 -0.8245 -5.7683917551227015 18.211359307315988 15.794373582588756 0 0 0
121 1 2 0.4648 -5.678100529477768 18.19204636975892 16.80031686329794 0 0 0
506 1 5 -0.8245 -4.631375440034537 13.900604946501684 19.139859319628826 0 0 0
287 1 3 0.2225 -3.7863681383624357 17.399557021127137 15.515107757813555 0 0 0
237 1 2 0.4648 -14.773228758995206 13.942646974325024 20.242441702840495 1 0 0
13 1 1 0.5671 -9.819742766434862 21.160476899002845 6.952940297970307 0 0 0
583 1 5 -0.8245 -19.349205570940295 22.042516252518258 7.38024666096298 1 0 0
475 1 4 -1 -16.665768597951775 19.602729727310745 -0.672998857230751 1 0 0
471 1 4 -1 -16.46898192629162 22.569157138367707 3.4703242450752994 1 0 0
514 1 5 -0.8245 -5.899057836771297 19.43709852137253 3.7090682287065886 0 0 0
103 1 2 0.4648 -8.599676237229506 20.63194889029589 8.557667840135702 0 0 0
104 1 2 0.4648 -10.657771711560837 21.258448327117158 8.756342494190681 0 0 0
105 1 2 0.4648 -11.69299597745055 21.83097984115891 7.5552771599127215 0 0 0
473 1 4 -1 -14.416262384885854 21.058192826776782 7.4788501102286835 1 0 0
369 1 4 -1 -11.760632349043162 19.821787968783642 -0.3531689036612092 0 0 0
110 1 2 0.4648 -6.442147721887923 20.281950598096994 3.6039132286285462 0 0 0
49 1 1 0.5671 -19.078789028620914 20.87477548536531 6.767347439183596 1 0 0
363 1 4 -1 -7.462329549903089 22.539990521117385 3.850866605727424 0 0 0
609 1 6 2 -9.562866304402439 21.083892400928075 1.4226524450685263 0 0 0
645 1 6 2 -18.8618611060608 21.169151593641654 1.7033640819337168 1 0 0
283 1 3 0.2225 -9.768124571948748 21.589056514722067 5.962782911271402 0 0 0
106 1 2 0.4648 -7.71785528852652 21.16851692183872 7.286446436315457 0 0 0
511 1 5 -0.8245 -10.876096656261035 21.277647456771412 7.770281799264557 0 0 0
512 1 5 -0.8245 -8.627128964133192 20.830355659681913 7.567540472069632 0 0 0
361 1 4 -1 -11.98064141112832 22.479299319574633 3.603186942671528 0 0 0
249 1 2 0.4648 -20.136973395499517 22.667130562831492 7.284905060980309 1 0 0
367 1 4 -1 -7.139510952173432 19.794532370519423 -0.17624771405860082 0 0 0
78 1 2 0.4648 -15.300828880723707 22.88088083153168 9.421483926474346 0 -1 0
250 1 2 0.4648 -17.787932637824436 19.295903530610335 6.922948451339088 1 0 0
584 1 5 -0.8245 -18.063215916477446 20.1880939446763 7.307845607422552 1 0 0
247 1 2 0.4648 -17.665103444256324 20.443126139180197 8.200380609998126 1 0 0
248 1 2 0.4648 -18.716717557489066 22.590007126285965 7.9460110324708975 1 0 0
64 1 2 0.4648 -14.0723171480432 22.82291035129925 1.163681404173604 0 -1 0
65 1 2 0.4648 -13.372570298041662 22.138006169687138 -0.14479626793114708 0 -1 0
491 1 5 -0.8245 -13.929949718202534 22.919869785036656 0.16824211334257927 0 -1 0
252 1 2 0.4648 -14.575774821195912 19.139530342665882 4.5869126231157 1 0 0
107 1 2 0.4648 -6.553487690688981 18.667954272857255 3.712462455941314 0 0 0
16 1 1 0.5671 -9.673308458950853 20.652868359543838 18.657511458404098 0 0 0
262 1 2 0.4648 -17.333796739225946 20.740431064956816 17.04902768550275 1 0 0
265 1 2 0.4648 -13.166060316061104 20.068371235496926 15.095426215271873 1 0 0
52 1 1 0.5671 -18.2202525591411 21.164779675827653 18.8486000018536 1 0 0
612 1 6 2 -9.338051828906002 20.913294371988073 12.633969725233756 0 0 0
115 1 2 0.4648 -7.80820482592445 21.62368440610141 18.873744946940413 0 0 0
116 1 2 0.4648 -8.830992687611918 21.559199351154085 16.976977136123086 0 0 0
591 1 5 -0.8245 -13.353670854197572 19.2413560867563 14.546972893795948 1 0 0
276 1 3 0.2225 -13.014607645349736 22.986727254433923 10.345005063708554 0 -1 0
484 1 4 -1 -16.44728803880283 19.634653937630894 11.115838307216995 1 0 0
648 1 6 2 -18.654707762988696 20.784414020142474 12.829434701745571 1 0 0
322 1 3 0.2225 -17.363620110937326 21.616144869623362 19.326630882997772 1 0 0
117 1 2 0.4648 -10.501890174957694 21.299749131663642 16.798693468101828 0 0 0
118 1 2 0.4648 -8.309144330577604 20.83256753285494 20.21245993200365 0 0 0
517 1 5 -0.8245 -9.689924645106624 21.23126765527268 17.395211641742694 0 0 0
286 1 3 0.2225 -10.55091056084729 20.252036148379144 19.14300425888584 0 0 0
518 1 5 -0.8245 -8.568316098389072 21.089998661694356 19.27074356260539 0 0 0
589 1 5 -0.8245 -19.478614796371133 21.181343603438666 19.305394138898723 1 0 0
482 1 4 -1 -14.113927180818855 20.84934318425434 18.420691343867045 1 0 0
370 1 4 -1 -11.891002878598849 22.287885631078954 14.903005319084722 0 0 0
372 1 4 -1 -7.303830723788154 22.18052930480118 14.709737114380248 0 0 0
376 1 4 -1 -7.125095805085477 19.492745146710533 10.861163118253357 0 0 0
378 1 4 -1 -11.916848428819117 19.82177169710232 11.267473408316922 0 0 0
480 1 4 -1 -16.389815125502583 22.163626786973225 14.926466071525669 1 0 0
120 1 2 0.4648 -6.567823361791671 18.627565055250685 15.338911028522832 0 0 0
264 1 2 0.4648 -13.240921001491595 19.495936808268528 13.575898411969943 1 0 0
590 1 5 -0.8245 -18.174151926828383 20.663155439205838 17.60414819255108 1 0 0
259 1 2 0.4648 -19.00316096276342 20.49171062688833 17.05355267010559 1 0 0
498 1 5 -0.8245 -15.132916140196059 23.319853072323763 10.315561662418641 0 -1 0
261 1 2 0.4648 -19.6522077873183 21.809561025432703 20.077082989829947 1 0 0
6 1 1 0.5671 -13.914183384010991 23.34388855542967 10.824326298110536 0 -1 0
20 1 1 0.5671 13.545727275237361 2.999318059712513 3.075814840993353 0 0 0
133 1 2 0.4648 14.951807858611687 3.452414441040874 4.46494953431711 0 0 0
39 1 1 0.5671 17.799942661655113 0.03608406683812774 -0.3132539415091072 0 0 0
60 1 2 0.4648 4.278938249428768 3.9429584953651737 4.068512129476561 0 0 0
613 1 6 2 13.745604015967087 2.497006193359446 9.235772380909532 0 0 0
527 1 5 -0.8245 8.328274635714898 0.19182191393340775 0.6386667418793195 0 0 0
441 1 4 -1 15.719465869888667 3.6389510072856144 -0.6419066226199703 0 0 0
132 1 2 0.4648 13.980634784260841 2.1462121688409783 4.936783608002764 0 0 0
137 1 2 0.4648 8.642450982454763 0.4027947019858246 1.5751845020495154 0 0 0
422 1 4 -1 13.33712876117494 -0.16745337649164435 -0.6809308559594143 0 1 0
614 1 6 2 9.163737332302436 -0.16932611997444386 5.475089577660054 0 0 0
290 1 3 0.2225 13.814632355350989 3.7256716460413184 2.3230286888235465 0 0 0
434 1 4 -1 17.930692853523226 2.2084241748365403 3.170026938591557 0 0 0
328 1 4 -1 7.186277135458909 1.5643057746880142 7.325170304339513 0 0 0
380 1 4 -1 9.025356426649797 2.5276900619575895 3.5535020382484714 0 0 0
382 1 4 -1 16.045440306809393 1.2953847556727567 7.391308114028933 0 0 0
384 1 4 -1 11.916942907855823 0.9949516747992838 6.982508187776039 0 0 0
59 1 2 0.4648 5.843739209677293 2.520394544219371 3.9322906534663007 0 0 0
134 1 2 0.4648 12.12004857811966 1.9087550142221157 2.0607068301104943 0 0 0
128 1 2 0.4648 9.297517159396461 3.7048642099617695 6.617754903209188 0 0 0
387 1 4 -1 6.563021584123099 3.6186948275796285 -0.22660903496729606 0 0 0
209 1 2 0.4648 19.071949704559376 -0.38318702476302563 1.316148535189228 0 0 0
525 1 5 -0.8245 14.138450930044412 2.8870001063831974 4.268559012435624 0 0 0
526 1 5 -0.8245 12.646550922177582 2.061068515166236 2.9090396122386513 0 0 0
131 1 2 0.4648 12.305316038690528 1.483849687604077 3.6645048803650746 0 0 0
136 1 2 0.4648 7.410649309208729 0.48735738343601853 0.3380626394513883 0 0 0
385 1 4 -1 11.247097359506702 3.731088911968989 -0.23814845849289157 0 0 0
632 1 6 2 18.064913390012713 -0.22913901246156795 5.39619884747767 0 0 0
309 1 3 0.2225 17.29391436028148 0.9088794068104096 0.07203864128892183 0 0 0
147 1 2 0.4648 8.607548236001165 0.8318709627479857 9.590093443121193 0 0 0
23 1 1 0.5671 13.294160895307185 2.9262554429221344 14.862939342343575 0 0 0
293 1 3 0.2225 12.550796729651474 3.698435375663558 14.732022204315365 0 0 0
616 1 6 2 13.592633899978381 2.219689211454171 20.163633498612178 0 0 0
530 1 5 -0.8245 9.429059658775587 4.101579573832783 19.677364958510605 0 0 0
222 1 2 0.4648 19.684331785825073 0.19236137759925878 11.987775208807458 0 0 0
42 1 1 0.5671 18.146791226008173 -0.0613072320277765 10.692309199101897 0 0 0
146 1 2 0.4648 12.40503841282112 1.8044821117900018 13.650325036456971 0 0 0
394 1 4 -1 11.277850862373974 3.6803233968956057 11.02193674642839 0 0 0
275 1 3 0.2225 5.648621430450096 2.184515130450759 14.001514334183975 0 0 0
143 1 2 0.4648 13.79531094364356 0.9247063064386887 14.280152483290285 0 0 0
292 1 3 0.2225 10.001961998034709 3.4353584810080795 17.841693964183918 0 0 0
145 1 2 0.4648 14.529758790465126 3.893258362869474 16.218569377548313 0 0 0
443 1 4 -1 18.76154807669574 2.0152123458736177 14.599187061209117 0 0 0
337 1 4 -1 6.94924175341792 0.7337686318278358 18.67870037558887 0 0 0
389 1 4 -1 8.800136168922151 2.1397314993036423 15.0433507658152 0 0 0
391 1 4 -1 16.299049820782987 0.7592279146132754 18.172346971890395 0 0 0
393 1 4 -1 11.333213089159425 0.7576953553796173 18.38478939306237 0 0 0
450 1 4 -1 15.87728475766327 3.7470544387748568 11.334077025083475 0 0 0
312 1 3 0.2225 17.726875511073032 0.9232465331153286 10.83512304364652 0 0 0
294 1 3 0.2225 10.2936295211619 -0.1834870937899296 11.900036654216477 0 0 0
617 1 6 2 9.016749772736148 -0.5234873707396696 16.539399882559874 0 0 0
396 1 4 -1 6.445322790134299 3.4348604918560564 11.294016588934275 0 0 0
531 1 5 -0.8245 14.298201216198557 3.0165994793867155 15.773880840742612 0 0 0
532 1 5 -0.8245 13.22120154617062 1.7546403348989585 14.242959624052219 0 0 0
144 1 2 0.4648 14.94054729979099 2.2559885788112233 15.943136774000804 0 0 0
431 1 4 -1 13.434242812324921 -0.3015652394376886 10.75035913988941 0 1 0