LAMMPS data file via write_data, version 23 Jun 2022, timestep = 10021

648 atoms
6 atom types
378 bonds
3 bond types
486 angles
4 angle types
432 dihedrals
2 dihedral types
162 impropers
2 improper types

-6.741 20.204 xlo xhi
-0.165028 23.170027 ylo yhi
-1.1815 20.830499 zlo zhi
-13.4725 0 0 xy xz yz

Masses

1 12.01
2 1.008
3 1.008
4 126.900002
5 14.01
6 207.199997

Bond Coeffs # harmonic

1 340.4 1.08
2 448 1.365
3 434 1.01

Angle Coeffs # harmonic

1 35 120
2 35 113
3 35 119.1
4 70 120

Dihedral Coeffs # opls

1 0 3.9 0 0
2 0 3.9 0 0

Improper Coeffs # cvff

1 2.5 -1 2
2 2.5 -1 2

Atoms # full

206 1 2 0.4648 -4.600540334869296 1.8026443630055786 1.719212143687463 1 0 0
204 1 2 0.4648 -4.132274013727956 2.4268269042309902 5.159247378068678 1 0 0
38 1 1 0.5671 -5.168557567328807 2.9621185764203877 3.3759747031102845 1 0 0
331 1 4 -1 1.7737319737061519 3.830113175549752 0.007378230308487226 0 0 0
595 1 6 2 4.202318926055336 2.7853278335298124 9.069182449385133 0 0 0
333 1 4 -1 -2.549321680919542 4.157743232538375 -0.31378513859103185 0 0 0
631 1 6 2 -4.902961677374137 2.9145349530435136 9.217657581141466 1 0 0
58 1 2 0.4648 0.15698148635352988 3.9711878679410666 5.80351371046503 0 0 0
561 1 5 -0.8245 -4.7362121412639295 3.080123930998038 4.681245093330272 1 0 0
491 1 5 -0.8245 -0.09423173759658342 0.6788294895457637 -1.0612055057948313 0 0 0
63 1 2 0.4648 1.1018205470986795 0.11116412975002969 1.1431655650626165 0 0 0
61 1 2 0.4648 3.3010810818046235 2.943634837264086 1.7011744436223946 0 0 0
203 1 2 0.4648 -3.86641109345205 1.315156104662513 3.1086578919240044 1 0 0
596 1 6 2 -0.13774985073338838 0.16037880106642333 5.455003507630427 0 0 0
64 1 2 0.4648 0.3074759601775761 1.466512449350986 -0.5730702526451433 0 0 0
562 1 5 -0.8245 -4.4807771438664865 2.0056156921749198 2.7013266300259287 1 0 0
308 1 3 0.2225 -5.867814501265713 3.6337078966314618 2.900164543485174 1 0 0
326 1 4 -1 -0.13516506263814992 2.7420264945287522 3.588583315767909 0 0 0
330 1 4 -1 2.064113446445112 1.6173452870871197 7.175475630286924 0 0 0
476 1 4 -1 -4.442387182498482 -0.009118352948094426 -0.12584330451611478 1 1 0
205 1 2 0.4648 -5.098143791856492 3.7399614548814806 5.354823330655627 1 0 0
60 1 2 0.4648 2.81470585346794 3.2812813895523463 3.2441190954102272 0 0 0
436 1 4 -1 -2.6810666926803948 1.4358767684504103 7.185033212859617 1 0 0
438 1 4 -1 -7.139150945962642 1.9210056163636922 7.355367495390289 1 0 0
439 1 4 -1 -6.681092151731794 3.8283625535167465 -0.31934937621026416 1 0 0
489 1 5 -0.8245 3.519488529368458 2.8278047296561297 2.680449081846574 0 0 0
490 1 5 -0.8245 4.532019098260947 2.429415909742748 4.593322103295224 0 0 0
2 1 1 0.5671 4.651550985989881 2.3734905564632176 3.2411365417266196 0 0 0
368 1 4 -1 4.445081723376059 0.1190753216450895 0.07484159370144253 0 1 0
199 1 2 0.4648 -8.905761480923502 4.019966796365697 8.445047326328453 1 0 0
55 1 2 0.4648 -1.3009621449250286 4.233610149432554 6.581700314169762 0 0 0
62 1 2 0.4648 5.167664771733303 1.8683892424181425 5.142205971370455 0 0 0
59 1 2 0.4648 3.643629644858115 2.4879213177299135 5.070227161495825 0 0 0
568 1 5 -0.8245 -5.750976037115418 2.7248876559807735 14.895223754682004 1 0 0
342 1 4 -1 -2.203849536800805 4.343150188260121 10.69948111879882 0 0 0
41 1 1 0.5671 -4.645853109216073 3.1888084406323287 14.268100710979448 1 0 0
634 1 6 2 -4.540652402759617 2.5496284516398933 19.982542399985093 1 0 0
498 1 5 -0.8245 -0.5833355901002177 1.2434848211542038 10.4411552291054 0 0 0
212 1 2 0.4648 -8.544418919671084 3.573401841999796 17.740901324591064 1 0 0
495 1 5 -0.8245 3.9257754235588833 3.1937557449971123 13.597932157837578 0 0 0
599 1 6 2 0.06018063051662581 0.07083506086540008 16.146978384648353 0 0 0
598 1 6 2 4.185297301762826 2.6679623394643612 20.146484266488557 0 0 0
78 1 2 0.4648 -0.7307845433151839 2.237317719620583 10.544317655653119 0 0 0
215 1 2 0.4648 -5.749291079653131 1.8601129252327007 15.417003831169945 1 0 0
72 1 2 0.4648 4.208427459175946 2.398884794247531 13.042614904465927 0 0 0
567 1 5 -0.8245 -3.598216276906437 2.457551949822863 14.709946157190926 1 0 0
218 1 2 0.4648 -6.692778948348682 3.0515515929340395 14.732755049456843 1 0 0
217 1 2 0.4648 -2.645620971333279 2.666836299901739 14.44754232701558 1 0 0
276 1 3 0.2225 0.8524687012776966 1.2060556352485337 11.969462850410512 0 0 0
311 1 3 0.2225 -4.582004733224548 4.10986643449922 13.70780921964765 1 0 0
335 1 4 -1 -0.1642766540202817 2.9994829195756383 14.382979368541541 0 0 0
339 1 4 -1 2.3169940372848674 1.382937450577385 17.96823197902769 0 0 0
448 1 4 -1 -6.9931739251425915 4.142798368191971 10.880725075580699 1 0 0
485 1 4 -1 -4.575989076758977 0.18465247361073883 11.01865204575407 1 1 0
216 1 2 0.4648 -3.722681451644955 1.64210139476433 15.292713749241393 1 0 0
445 1 4 -1 -2.116070361341885 1.2666613047570743 18.190977502799253 1 0 0
447 1 4 -1 -6.8644284311893475 1.3108071755560518 18.084706846183767 1 0 0
377 1 4 -1 4.370726758109004 0.20399285497335287 11.141253168283866 0 1 0
6 1 1 0.5671 0.29853871254902137 0.675682478263747 11.20903002526738 0 0 0
71 1 2 0.4648 5.127320335939112 1.4747586074676897 14.67557540672304 0 0 0
73 1 2 0.4648 3.117378807355232 3.6776175680412018 13.234062414245875 0 0 0
340 1 4 -1 1.9478346709646999 4.236445454675124 10.972160277195462 0 0 0
5 1 1 0.5671 4.133070270892567 3.1706495411201083 14.97955120227274 0 0 0
496 1 5 -0.8245 4.883140472883929 2.168819402122335 15.367475394411143 0 0 0
74 1 2 0.4648 5.311095099769975 2.0533172343414874 16.27498955107859 0 0 0
65 1 2 0.4648 -0.759253863893249 0.9010927245134759 20.22386563228751 0 0 -1
275 1 3 0.2225 3.702030384796305 3.8977747459238627 15.651766076709832 0 0 0
565 1 5 -0.8245 -9.164902518888544 4.315430683358432 17.45024915038144 1 0 0
75 1 2 0.4648 -1.3495008629283147 0.8088418661611462 9.947015086093119 0 0 0
68 1 2 0.4648 -0.9171235358874875 3.969541306891744 18.058195569391458 0 0 0
1 1 1 0.5671 0.11528208731820518 5.645243301351509 7.045935605102376 0 0 0
9 1 1 0.5671 -4.773839181971345 7.2597717751133475 0.04956029129940705 0 0 0
37 1 1 0.5671 -9.695274729323273 5.512796826466208 7.1159372740098314 1 0 0
271 1 3 0.2225 1.035450379075449 6.142156897261261 6.776204197786644 0 0 0
633 1 6 2 -9.200403026191868 5.633414672205905 1.745670654210128 1 0 0
57 1 2 0.4648 -0.5805826288744164 7.0949927217357995 8.207028700641478 0 0 0
559 1 5 -0.8245 -8.450108543072242 5.666297898281677 6.653259356032232 1 0 0
487 1 5 -0.8245 -0.7732498182146743 6.206060360960369 7.76797623556858 0 0 0
56 1 2 0.4648 -1.5760111664450949 5.752125816398962 8.179728631560447 0 0 0
100 1 2 0.4648 -3.9137907372798386 7.455926127557875 9.55650924000903 0 0 0
201 1 2 0.4648 -8.304166896280787 6.369183001506298 5.94280374018558 1 0 0
597 1 6 2 -0.5778968624461647 5.216141364222564 1.7606146004865753 0 0 0
602 1 6 2 -4.449576999519937 7.952485014411046 5.585741477017214 0 0 0
440 1 4 -1 -8.840228292643351 7.930233836234569 -0.18387004084552547 1 0 0
200 1 2 0.4648 -7.603785009316688 5.179913453745919 6.912518610639499 1 0 0
86 1 2 0.4648 1.1657410565211224 8.506346201434246 3.7399319779550324 0 0 0
488 1 5 -0.8245 -0.348786714871188 4.547897495534991 6.460555408503881 0 0 0
83 1 2 0.4648 -0.28580950585217424 8.928213152609016 4.532952296539807 0 0 0
325 1 4 -1 -2.4690170753962004 6.604738539458288 3.6707814336564835 0 0 0
327 1 4 -1 2.2561841728369414 6.186908820998018 3.8979468016712766 0 0 0
332 1 4 -1 -0.14372437553558612 7.619678658913479 0.0951300985551077 0 0 0
503 1 5 -0.8245 -4.253059053545104 7.410056970917702 -1.1717904108954962 0 0 0
435 1 4 -1 -6.780575557279555 6.8471091221247615 3.6292773135064382 1 0 0
437 1 4 -1 -4.6613241243576375 5.58634925112964 7.431616150547297 1 0 0
279 1 3 0.2225 -5.062838351559496 6.259388918354183 0.33606451581044117 0 0 0
504 1 5 -0.8245 -4.888931514829515 8.379269103445235 0.8263142014873749 0 0 0
454 1 4 -1 -6.822925509515002 9.121602336990083 7.448535406631541 1 0 0
456 1 4 -1 -11.100018628895747 8.977304365662597 7.403438001803925 1 0 0
90 1 2 0.4648 -5.464200211607283 8.392874962301283 1.6563512298556173 0 0 0
4 1 1 0.5671 0.1114391297841055 5.767993356344042 17.964998836073427 0 0 0
12 1 1 0.5671 -4.382553493160856 8.120512185964765 11.48363426547915 0 0 0
70 1 2 0.4648 0.803909502313646 6.3150256344100475 19.883181701634218 0 0 0
102 1 2 0.4648 -6.448173483874223 7.9434921100060585 11.767189914608462 0 0 0
636 1 6 2 -9.286283841467895 5.42543491427586 12.724935154749483 1 0 0
69 1 2 0.4648 -0.575310596986325 4.508297096620741 16.569598072436293 0 0 0
310 1 3 0.2225 -9.907859026291641 6.272040634422529 17.744784782481712 1 0 0
566 1 5 -0.8245 -8.13855046098214 5.893843615543919 18.668367342733145 1 0 0
242 1 2 0.4648 -9.500531251303599 8.623945385019034 15.456804638490025 1 0 0
282 1 3 0.2225 -4.060493857166892 8.443160150905896 12.462674145528194 0 0 0
211 1 2 0.4648 -7.333781263273749 5.295918015896878 18.790487220750336 1 0 0
40 1 1 0.5671 -9.066443880525245 5.596798464488858 17.794344618111097 1 0 0
605 1 6 2 -4.650924725203981 7.735222254285526 16.386016732356406 0 0 0
494 1 5 -0.8245 0.33808873757083835 5.6685678829110735 19.26258111410038 0 0 0
101 1 2 0.4648 -2.6320227041257045 8.221907908752772 10.398605777846832 0 0 0
214 1 2 0.4648 -8.085708742681504 6.781399809570044 19.147458185192352 1 0 0
510 1 5 -0.8245 -5.668155398104917 7.811594770699101 11.139302162723055 0 0 0
99 1 2 0.4648 -5.97902333896332 7.762776683776187 10.17957485293314 0 0 0
334 1 4 -1 -2.4649823348683193 6.702951108033121 14.45721335641261 0 0 0
449 1 4 -1 -9.284795944353815 8.01108814992863 11.091821184749948 1 0 0
341 1 4 -1 -0.0340369662779426 8.135106171091463 10.711964061449667 0 0 0
600 1 6 2 -0.23175685453379105 5.720934622249593 12.607296191614434 0 0 0
444 1 4 -1 -6.941874702572908 6.387687554705526 14.586831983855795 1 0 0
446 1 4 -1 -4.435723246589174 5.202815262796804 18.233349349627325 1 0 0
336 1 4 -1 2.124124533389171 6.781622582654249 14.953231164760199 0 0 0
88 1 2 0.4648 -4.416632291056546 8.335235735697987 20.469567213635102 0 0 -1
357 1 4 -1 -1.9526349637353198 9.158597788530265 17.99273312145574 0 0 0
67 1 2 0.4648 -0.058721376888910125 4.899555272339441 19.783392494853857 0 0 0
493 1 5 -0.8245 -0.6701457597702027 4.796133383276129 17.533020246142804 0 0 0
239 1 2 0.4648 -8.060748204660856 8.95176266485274 14.661943679798284 1 0 0
89 1 2 0.4648 -4.090657547390729 6.653035778448167 20.191642400934644 0 0 -1
465 1 4 -1 -11.101119862733421 8.975427262355888 18.101838512368456 1 0 0
274 1 3 0.2225 0.46911602415147713 6.589627757655969 17.362196534633117 0 0 0
509 1 5 -0.8245 -3.5912182440336755 7.905622910654124 10.401376182054072 0 0 0
463 1 4 -1 -6.550613965283737 9.113525813436805 18.35446658288899 1 0 0
8 1 1 0.5671 0.3615867193472237 10.368688760065277 3.297774873707101 0 0 0
501 1 5 -0.8245 -0.6250265014084515 11.155034024055444 3.879285864217985 0 0 0
229 1 2 0.4648 -9.675348728255914 9.81870763044146 5.2905022740308825 1 0 0
44 1 1 0.5671 -8.513795445333527 10.749965268871632 3.87363914236169 1 0 0
85 1 2 0.4648 -0.7497114171322592 12.090713667232151 3.5200960585105894 0 0 0
574 1 5 -0.8245 -8.4879808046165 10.679848461162466 2.564302861001788 1 0 0
7 1 1 0.5671 -4.170084409613281 13.3272176678835 7.7917918555634325 0 0 0
639 1 6 2 -13.606218105862203 13.117832402881477 1.7896146140746816 1 0 0
572 1 5 -0.8245 -13.465090312316349 11.739087129789343 8.068705046628 1 0 0
313 1 3 0.2225 -11.761454484526272 12.433188050970948 7.0172298701180145 1 0 0
601 1 6 2 0.24000617690656867 10.941917677713588 9.017971604820271 0 0 0
314 1 3 0.2225 -7.870390011170975 11.320695941667257 4.526851796667547 1 0 0
637 1 6 2 -8.946288845762211 10.415165155761894 9.124725550843037 1 0 0
227 1 2 0.4648 -8.979598803396854 10.0500103634435 1.9464732972158625 1 0 0
500 1 5 -0.8245 -4.666582109949374 12.1351361227902 8.10840685380992 0 0 0
230 1 2 0.4648 -7.692356251954924 11.162244970246343 2.1714058731267563 1 0 0
348 1 4 -1 -2.148452416529311 9.424327422076734 7.176807291451287 0 0 0
573 1 5 -0.8245 -9.470873707935601 10.02644019142518 4.323498975992106 1 0 0
344 1 4 -1 -4.347468109568293 10.735995241868318 3.905117818855888 0 0 0
349 1 4 -1 -2.274317749460483 11.616144590521111 -0.029057309458773016 0 0 0
351 1 4 -1 -6.359584482655292 11.938227976013627 -0.11108189600164536 0 0 0
455 1 4 -1 -8.753503133585115 12.899685969781551 7.248377740014719 1 0 0
457 1 4 -1 -11.112975047527351 11.931963181291945 -0.07368373635667878 1 0 0
226 1 2 0.4648 -13.056894731791784 10.866583136065374 8.372334415586812 1 0 0
43 1 1 0.5671 -12.766447553405378 12.622824571170266 7.364223458451314 1 0 0
80 1 2 0.4648 -4.208142084700059 12.728077909004574 5.843024501050866 0 0 0
82 1 2 0.4648 -4.996596496595141 11.900304132611453 9.033631132917796 0 0 0
603 1 6 2 -4.283831762756051 13.17017264890184 1.8228051545107784 0 0 0
87 1 2 0.4648 -4.433439136126873 9.26760049140567 0.6730598488913802 0 0 0
79 1 2 0.4648 -4.537976116542488 11.345298001768994 7.492237148429745 0 0 0
84 1 2 0.4648 -1.3581848226916478 10.8242574616525 4.490145910155148 0 0 0
502 1 5 -0.8245 0.4202411931839809 9.177921094438013 3.855283244300589 0 0 0
499 1 5 -0.8245 -3.863239510352559 13.445646058617307 6.464488396468447 0 0 0
571 1 5 -0.8245 -13.540019784467018 13.663153361571485 6.987893713788892 1 0 0
228 1 2 0.4648 -10.1438116810402 9.666066817817528 3.6621566175778235 1 0 0
95 1 2 0.4648 -0.9459302289297833 9.26181372507416 14.627694275944929 0 0 0
280 1 3 0.2225 -5.102058120422373 12.863503699873414 16.95730753087285 0 0 0
46 1 1 0.5671 -12.813923248950474 13.42325838526126 18.57660785471349 1 0 0
47 1 1 0.5671 -9.408908878115975 10.533843500294529 14.617723124004309 1 0 0
93 1 2 0.4648 -2.821723152462571 12.057167147927085 18.077846427260965 0 0 0
640 1 6 2 -8.769802326233368 10.6843614600156 19.990202537558396 1 0 0
642 1 6 2 -13.10884301111334 13.027767411376946 12.820130777219692 1 0 0
606 1 6 2 -4.30199410440704 12.814320648006271 12.926309321779282 0 0 0
92 1 2 0.4648 -3.292881261443073 12.953197031520435 19.43279047772405 0 0 0
316 1 3 0.2225 -12.038978657647835 13.220883336926347 19.301110494416342 1 0 0
98 1 2 0.4648 -0.9468823798725453 10.052263903373081 13.161708154918369 0 0 0
580 1 5 -0.8245 -8.996856849086964 9.270796026194008 14.866900713388553 1 0 0
577 1 5 -0.8245 -13.876108136587517 12.611406547332862 18.36291148412335 1 0 0
604 1 6 2 0.031344289160687884 10.379433497141008 20.245062762355214 0 0 0
240 1 2 0.4648 -7.807399733992769 10.671998083913932 13.425225983984603 1 0 0
317 1 3 0.2225 -10.205467782606744 11.073177209644738 15.108653305842102 1 0 0
579 1 5 -0.8245 -8.587626917030862 11.140032495083748 13.863705765188483 1 0 0
10 1 1 0.5671 -4.68832787067241 13.090382124271894 17.92876318579936 0 0 0
353 1 4 -1 -4.681257622771684 10.390500075773764 14.61604215838573 0 0 0
358 1 4 -1 -2.056027712833803 11.54143751672128 11.16252786513218 0 0 0
360 1 4 -1 -6.635091714036978 11.757029698606488 11.006751591536611 0 0 0
464 1 4 -1 -8.875215216202404 13.228832886730153 18.149534737002334 1 0 0
466 1 4 -1 -10.770096273210246 11.921383605691185 10.977740040194634 1 0 0
96 1 2 0.4648 -0.06990212537395135 10.02229757402326 16.305565412165226 0 0 0
505 1 5 -0.8245 -3.4791111879065255 12.716850808852444 18.46865622018115 0 0 0
241 1 2 0.4648 -8.757235891399507 12.052071805725715 13.464312105683275 1 0 0
508 1 5 -0.8245 -0.5499238043247797 10.019423012614011 14.089845193532767 0 0 0
11 1 1 0.5671 0.4554303631792264 10.704142265434081 14.501097670722473 0 0 0
516 1 5 -0.8245 -9.784467749563396 15.631265370464424 0.8145884414299474 0 0 0
15 1 1 0.5671 -8.604084190571665 15.237039940519267 0.3342362932401599 0 0 0
608 1 6 2 -8.978974323188837 15.452990953494643 5.544077168011195 0 0 0
107 1 2 0.4648 -4.0286301749069064 18.243141826592318 2.0988946714723675 0 0 0
320 1 3 0.2225 -13.493868437272674 18.314505639702407 5.128810754073573 1 0 0
474 1 4 -1 -15.679240831192109 17.324892429411133 7.218824573438649 1 0 0
252 1 2 0.4648 -14.332923824927667 18.38453292441451 2.201970386296203 1 0 0
225 1 2 0.4648 -13.153361467610216 14.359586559094105 6.366976338638663 1 0 0
345 1 4 -1 -2.0634574757007678 14.695177882012262 3.3175024780746933 0 0 0
114 1 2 0.4648 -10.229137367648866 14.999606891857615 1.465261477687863 0 0 0
123 1 2 0.4648 -9.440620626245297 14.778543524351791 9.457384042048721 0 0 0
284 1 3 0.2225 -5.598860058084832 18.46828628306898 4.645470554071768 0 0 0
285 1 3 0.2225 -8.052950722894044 14.408435402510236 0.753838088978519 0 0 0
607 1 6 2 -4.517966901202377 17.874224608749607 9.18903672650745 0 0 0
277 1 3 0.2225 -3.9579199425559133 14.085890187376902 8.53055264919314 0 0 0
643 1 6 2 -13.467798443274383 18.47454200595044 9.03614080945367 1 0 0
111 1 2 0.4648 -10.338604770600027 16.47267114164986 0.7436993161551231 0 0 0
472 1 4 -1 -11.45340107811908 16.97553487036995 6.929822087920093 1 0 0
343 1 4 -1 -6.874188586286914 14.169999602881752 3.524620550800861 0 0 0
514 1 5 -0.8245 -4.830437616750797 18.268479424175442 2.7125251062981315 0 0 0
350 1 4 -1 -4.381779682587916 15.732698794552979 -0.03514662360353478 0 0 0
585 1 5 -0.8245 -14.480043672458173 18.33068437295528 3.199745326743314 1 0 0
366 1 4 -1 -6.713579422034912 16.7998051352481 7.112022608934718 0 0 0
453 1 4 -1 -11.230740668294143 13.976880270200462 3.8350051969348926 1 0 0
458 1 4 -1 -13.598297698306581 15.826614229240203 0.06249746814106206 1 0 0
362 1 4 -1 -8.842036222644076 18.24890458155496 3.6395628150537838 0 0 0
14 1 1 0.5671 -4.716525469149719 18.42509671262402 4.024167555987238 0 0 0
113 1 2 0.4648 -7.10666875083999 16.30402305272682 -0.6125600504558131 0 0 0
81 1 2 0.4648 -3.4653318305432497 14.285582138699839 6.069178996501049 0 0 0
50 1 1 0.5671 -13.430198125548486 18.28890500944984 4.051021252018345 1 0 0
515 1 5 -0.8245 -8.10244685769343 16.20816297222324 -0.47351535476953754 0 0 0
112 1 2 0.4648 -8.752284168386899 16.95442395293211 -0.6756324018095372 0 0 0
126 1 2 0.4648 -10.293862933180263 16.174971553093933 9.448284151108657 0 0 0
251 1 2 0.4648 -12.218751513381932 18.156744998783157 2.3704819153133267 1 0 0
586 1 5 -0.8245 -12.290541800818339 18.25517696427179 3.373096504248785 1 0 0
110 1 2 0.4648 -5.625555819271504 17.76834759626325 2.341410593061655 0 0 0
254 1 2 0.4648 -11.388824885925988 18.35457736751084 3.817057337218531 1 0 0
224 1 2 0.4648 -14.506871043867513 13.872598475566274 7.191431522882211 1 0 0
519 1 5 -0.8245 -3.5867077545667265 17.518517525797293 14.357819465053048 0 0 0
18 1 1 0.5671 -9.073419027103629 16.084282083060547 11.076262242452199 0 0 0
611 1 6 2 -8.745263543907702 15.636322854465146 16.49991247826465 0 0 0
467 1 4 -1 -13.107040351332339 15.850694567407007 11.211558850088313 1 0 0
17 1 1 0.5671 -4.7050343095827705 18.270059152946715 14.39456099212118 0 0 0
462 1 4 -1 -10.80541652462807 14.090056856247418 14.721499641215965 1 0 0
235 1 2 0.4648 -13.557348478738925 14.706842020940137 17.226266400474067 1 0 0
591 1 5 -0.8245 -14.402176136565197 18.023998107360335 14.814608281329221 1 0 0
238 1 2 0.4648 -12.385632666972338 15.428797908228562 18.167142776347703 1 0 0
481 1 4 -1 -10.963631924138905 17.24654960651725 18.350090803428024 1 0 0
354 1 4 -1 -2.0170411641170953 14.051936539966484 14.840812391991497 0 0 0
646 1 6 2 -13.511907993278864 18.263108858156908 20.255092377348603 1 0 0
287 1 3 0.2225 -5.703983593505058 17.8749781916963 14.505956574402463 0 0 0
125 1 2 0.4648 -7.453328593724521 15.525502826977515 12.345694157065102 0 0 0
483 1 4 -1 -15.780075222425914 17.177219463760157 18.42961078159475 1 0 0
521 1 5 -0.8245 -8.028748502572553 15.299006664949895 11.54714179711525 0 0 0
288 1 3 0.2225 -9.403833201717841 16.962970223025454 11.610238865943106 0 0 0
352 1 4 -1 -6.3189328742069675 14.194954589730845 14.651003049483588 0 0 0
522 1 5 -0.8245 -9.60396899430848 15.640900480391096 9.957110872237477 0 0 0
124 1 2 0.4648 -7.859685443978111 14.355444767675085 11.229046145661355 0 0 0
359 1 4 -1 -4.101372155645741 15.532070434630878 11.02517996411116 0 0 0
94 1 2 0.4648 -5.9689999613828775 14.584881344049547 18.61229669276708 0 0 0
375 1 4 -1 -6.555378135119413 17.45090784161723 18.25178783169715 0 0 0
121 1 2 0.4648 -3.6986062335898584 16.514861330644653 14.342186431449194 0 0 0
91 1 2 0.4648 -4.6923220978058 14.370315595479845 19.643484292349093 0 0 0
323 1 3 0.2225 -13.000014726639009 17.554370934737776 13.31824972041395 1 0 0
53 1 1 0.5671 -13.140892720452463 17.942567455151146 14.316169776179384 1 0 0
371 1 4 -1 -8.806830508292958 17.939145009916498 14.321506568928749 0 0 0
265 1 2 0.4648 -15.187494302002163 17.657560920856692 14.295862585998599 1 0 0
610 1 6 2 -4.3733082102099265 18.41465820079998 20.1495879192248 0 0 0
506 1 5 -0.8245 -5.11918222849778 14.065597915852928 18.780332358884483 0 0 0
578 1 5 -0.8245 -12.996777828639097 14.631463009785296 18.063026345952327 1 0 0
264 1 2 0.4648 -14.753103986019616 18.435309263505467 15.667699716280131 1 0 0
13 1 1 0.5671 -8.865764745332283 20.94824789556006 6.968865583660957 0 0 0
49 1 1 0.5671 -18.086620851275892 20.56138675263061 7.819999454462987 1 0 0
475 1 4 -1 -15.645967953558106 19.706816964322563 0.013866558020308738 1 0 0
273 1 3 0.2225 -14.221648528344568 22.029135111722127 -0.755187572562187 0 -1 0
66 1 2 0.4648 -13.216652420073476 21.966732351292908 1.2966032439362702 0 -1 0
103 1 2 0.4648 -9.976037389879782 21.702567849554903 8.557396563169386 0 0 0
104 1 2 0.4648 -8.559929630043895 19.732913308816315 8.714050151833964 0 0 0
105 1 2 0.4648 -7.584765180590724 19.409787961964106 7.453567043318867 0 0 0
106 1 2 0.4648 -10.254054805346124 22.502199080211795 7.123247746468091 0 0 0
584 1 5 -0.8245 -18.529517260736412 21.793123066408885 7.778398901554193 1 0 0
583 1 5 -0.8245 -17.43098579173818 20.26692987078305 6.737333903603435 1 0 0
248 1 2 0.4648 -17.012054206959462 20.869327457370115 6.043297007755321 1 0 0
3 1 1 0.5671 -13.674157983102914 22.88247218760766 -0.3830832970093022 0 -1 0
609 1 6 2 -8.880713921055055 20.78536051738021 1.715085627406451 0 0 0
645 1 6 2 -18.07533519765216 20.74447949622847 1.948479439917692 1 0 0
283 1 3 0.2225 -8.62206214422644 20.927099499619562 5.916940995515169 0 0 0
247 1 2 0.4648 -18.325155396009944 22.566487252356843 7.161769008308631 1 0 0
511 1 5 -0.8245 -8.32584887818953 20.01684537348719 7.7734764939264 0 0 0
512 1 5 -0.8245 -9.769946998338547 21.736140266157637 7.569216945699394 0 0 0
361 1 4 -1 -11.002053157052 22.069503068567194 3.887009897870042 0 0 0
363 1 4 -1 -6.7984157927026665 21.8849839077927 3.7149041045138165 0 0 0
367 1 4 -1 -6.560527844494479 19.546799246888757 -0.3178342790215526 0 0 0
369 1 4 -1 -11.122159194047992 19.35562201270363 0.2409699333295106 0 0 0
471 1 4 -1 -15.84752895136415 21.95552827396524 3.645818994577405 1 0 0
473 1 4 -1 -13.634051702905639 21.08918427657528 7.525033479067724 1 0 0
250 1 2 0.4648 -19.11055411172941 21.941304154093956 8.591119908542636 1 0 0
249 1 2 0.4648 -16.934638469275697 19.388866677710325 6.6849821544354375 1 0 0
492 1 5 -0.8245 -13.121734656801436 22.852708255617905 0.8210702739732124 0 -1 0
319 1 3 0.2225 -18.223345784357267 19.943762735317765 8.69533164062473 1 0 0
253 1 2 0.4648 -15.436978508692922 18.51741676785657 3.4633639016093274 1 0 0
16 1 1 0.5671 -8.953130341287984 20.60149509290736 18.86172195600001 0 0 0
52 1 1 0.5671 -17.73982068610222 20.748529500764068 18.743145263533595 1 0 0
259 1 2 0.4648 -18.22804195005724 20.364393888482734 16.745555363847767 1 0 0
589 1 5 -0.8245 -18.928724081266818 21.180575722261562 18.893721727948822 1 0 0
612 1 6 2 -8.862842007039086 20.91690792195815 12.680707985171203 0 0 0
115 1 2 0.4648 -9.735589041946769 22.448460735798157 18.381237779984815 0 0 0
116 1 2 0.4648 -8.063996142125516 21.23987117790263 16.99202400677157 0 0 0
117 1 2 0.4648 -7.337305123340735 19.99443039945199 17.877709736247155 0 0 0
122 1 2 0.4648 -5.263643605768965 20.30021042072225 14.49864576138489 0 0 0
262 1 2 0.4648 -16.73573112659687 19.74989183677243 17.279836790370357 1 0 0
648 1 6 2 -17.720832543138695 20.80190911031586 12.772244281245905 1 0 0
76 1 2 0.4648 -13.494774584084315 22.144715989725952 10.262108662771707 0 -1 0
322 1 3 0.2225 -17.007824049080597 20.68614038617066 19.534780763400185 1 0 0
118 1 2 0.4648 -10.827369692079314 21.400363364683223 19.018524092780265 0 0 0
517 1 5 -0.8245 -8.120054671626434 20.6270415372194 17.79288203316607 0 0 0
286 1 3 0.2225 -8.895995725773048 19.88487773818728 19.667696064852187 0 0 0
518 1 5 -0.8245 -9.842400511827716 21.60093643476699 18.920062467862437 0 0 0
497 1 5 -0.8245 -13.084904078485447 22.67065166304899 11.020703853507046 0 -1 0
590 1 5 -0.8245 -17.586406731613092 20.240621081996647 17.515672918746482 1 0 0
370 1 4 -1 -11.221226763501098 22.07679918322364 14.382813596738268 0 0 0
372 1 4 -1 -6.919745495936125 22.310986088588457 14.745639648041267 0 0 0
376 1 4 -1 -6.738895887913108 19.467809624278967 10.889251837560051 0 0 0
378 1 4 -1 -11.082945948319267 19.625379893454546 10.733941184073625 0 0 0
480 1 4 -1 -15.630769561328647 22.02445563376192 14.592768851081317 1 0 0
482 1 4 -1 -13.387034552204472 20.741251399613144 18.175113844101194 1 0 0
484 1 4 -1 -15.825774585025224 19.201616396932486 10.991106451922775 1 0 0
77 1 2 0.4648 -12.644010958233483 22.02479965897563 11.659905357801243 0 -1 0
266 1 2 0.4648 -11.284835831619796 18.632545033478067 15.10198525795169 1 0 0
263 1 2 0.4648 -12.622875840458779 19.057697270298974 16.020084344265317 1 0 0
261 1 2 0.4648 -19.250827678510376 21.603340062460067 19.75253153127234 1 0 0
592 1 5 -0.8245 -12.277321553727013 18.511019784412575 15.244309645638996 1 0 0
20 1 1 0.5671 12.840647335104045 2.314794317827443 3.3043932809316483 0 0 0
272 1 3 0.2225 5.504063190524547 2.0690209817390377 2.652140820174448 0 0 0
207 1 2 0.4648 18.50508350389808 0.4422683204702575 1.4697534967464319 0 0 0
21 1 1 0.5671 9.589777501340086 0.4027885366914625 0.01419259768758561 0 0 0
131 1 2 0.4648 14.70379396925403 3.0379416047138377 2.4628023258134504 0 0 0
132 1 2 0.4648 13.30241640904828 4.22049747062656 3.8077693854160626 0 0 0
134 1 2 0.4648 14.5592546787349 1.4310789887388418 2.778085600251947 0 0 0
208 1 2 0.4648 18.508463978950424 1.728332837606612 -0.5191941977820563 0 0 0
527 1 5 -0.8245 8.956492089982483 1.1903968463204153 -0.8287597490095723 0 0 0
632 1 6 2 17.739023568460873 0.5418711961470277 5.394556358312787 0 0 0
563 1 5 -0.8245 17.92047625661688 0.9766653014622023 -0.8498606523108511 0 0 0
385 1 4 -1 11.237654383209787 3.902723916341103 -0.1919188083674214 0 0 0
289 1 3 0.2225 8.558971918500928 3.6667910067748624 7.937823585738599 0 0 0
328 1 4 -1 6.338879182595815 1.113680348681963 7.199641031557623 0 0 0
380 1 4 -1 8.737518592037027 2.639935774690029 3.583528657101287 0 0 0
382 1 4 -1 15.12626348104327 1.1720833554450938 6.8092616368086905 0 0 0
384 1 4 -1 10.766754440909683 1.5256499558658185 7.12701778134745 0 0 0
441 1 4 -1 15.602405642418901 4.12354782915349 -0.05547087173724995 0 0 0
137 1 2 0.4648 9.30136875662557 2.1192997978144135 -1.024373369751512 0 0 0
129 1 2 0.4648 8.199249483910103 4.162984617023565 5.493562440365384 0 0 0
422 1 4 -1 13.154947687863338 0.006264450470570026 -0.05545198047303431 0 1 0
133 1 2 0.4648 11.75715259562657 3.684467052222309 4.319068073812395 0 0 0
525 1 5 -0.8245 12.522719354473086 3.5942394243043863 3.666486338967179 0 0 0
526 1 5 -0.8245 14.064412435849688 2.3111274233339105 2.750929051129505 0 0 0
434 1 4 -1 18.01631093204686 2.9336958191489604 3.194369920585659 0 0 0
290 1 3 0.2225 12.270046289249393 1.4001315284400473 3.2396454539635857 0 0 0
613 1 6 2 13.00768889726768 2.520095242413258 8.817492952252127 0 0 0
291 1 3 0.2225 10.570301312442082 0.7178513188329207 0.3392570918572409 0 0 0
387 1 4 -1 6.280442390946132 4.022081849680278 -0.14356048573068877 0 0 0
23 1 1 0.5671 13.020113707596153 2.6739842231344246 14.646163687019229 0 0 0
221 1 2 0.4648 19.640819939818897 0.07673581019028748 11.68156263516488 0 0 0
616 1 6 2 13.497243536433542 2.936346038481145 20.060590880740353 0 0 0
396 1 4 -1 6.526781706193168 3.9049702381640716 10.801362687742213 0 0 0
431 1 4 -1 13.303841334592624 0.05974712151401334 10.518829679055308 0 1 0
143 1 2 0.4648 14.266894790209532 3.425109600042138 13.051494767522694 0 0 0
144 1 2 0.4648 14.994700371839867 2.0677090768202286 14.795368828082479 0 0 0
145 1 2 0.4648 13.942420810325663 1.703294121259558 16.149012398962185 0 0 0
635 1 6 2 17.75030763144581 -0.011762432378019248 16.285851651072235 0 0 0
394 1 4 -1 11.081657734085702 3.795631196938487 11.069727546498113 0 0 0
293 1 3 0.2225 12.02666884779761 2.3088042142633993 14.860892594828103 0 0 0
219 1 2 0.4648 16.54754383969982 1.4607148260163656 11.125614887299792 0 0 0
213 1 2 0.4648 16.936114610945747 3.905610447159629 17.07629938795558 0 0 0
337 1 4 -1 6.4954283012485154 1.3219571692424255 18.423346970747797 0 0 0
389 1 4 -1 8.901888392364183 2.7054453269057177 14.709408369361132 0 0 0
391 1 4 -1 15.823405962500445 1.3438160578291718 18.42580731453168 0 0 0
393 1 4 -1 10.998200017282532 1.6416070856920355 18.323299639692458 0 0 0
220 1 2 0.4648 18.73843935888744 1.4557976270019695 11.905119286168633 0 0 0
149 1 2 0.4648 9.000029540087233 1.3136183145294285 12.654000665975115 0 0 0
533 1 5 -0.8245 8.629397672593988 0.6897084633697859 11.951537131222048 0 0 0
443 1 4 -1 17.597684996379556 2.3294243531871817 14.381443456284849 0 0 0
450 1 4 -1 15.455091743075078 3.959233313813763 10.854215899667453 0 0 0
531 1 5 -0.8245 14.082878856124413 2.095204445590644 15.228823378360643 0 0 0
532 1 5 -0.8245 13.378458020908162 3.3996159190026973 13.531191272251721 0 0 0
146 1 2 0.4648 12.66411374380445 3.8675673794081127 12.991915130313686 0 0 0
209 1 2 0.4648 17.589491054176495 1.1648900821248682 20.226666652221105 0 0 -1
142 1 2 0.4648 7.673176130534052 3.7735554428896663 18.88815742708247 0 0 0
148 1 2 0.4648 7.624999779982307 0.7259085970274279 11.851683409118534 0 0 0
139 1 2 0.4648 9.097658097863304 3.4865017022769718 18.026075603145134 0 0 0