ITEM: TIMESTEP
0
ITEM: NUMBER OF ATOMS
648
ITEM: BOX BOUNDS xy xz yz pp pp pp
-2.0213500000000000e+01 2.0204000000000001e+01 -1.3472500000000000e+01
-1.6502800000000001e-01 2.3170027000000001e+01 0.0000000000000000e+00
-1.1815000000000000e+00 2.0830499000000000e+01 0.0000000000000000e+00
ITEM: ATOMS id type xs ys zs
206 2 0.121599 0.0843226 0.131778
204 2 0.152353 0.11107 0.288059
38 1 0.125363 0.134011 0.207045
331 4 0.401608 0.171208 0.0540105
595 6 0.469353 0.126434 0.465686
333 4 0.248188 0.185248 0.0394201
631 6 0.1342 0.131972 0.472431
58 2 0.344629 0.177253 0.317328
561 5 0.143937 0.139068 0.266343
491 5 0.26476 0.0361626 0.00546497
63 2 0.296986 0.0118361 0.105609
61 2 0.439297 0.133219 0.130959
203 2 0.138399 0.0634318 0.194901
596 6 0.252037 0.013945 0.301495
64 2 0.296547 0.0699182 0.0276409
562 5 0.130393 0.0930207 0.176396
308 3 0.113802 0.162791 0.185429
326 4 0.307449 0.124579 0.216704
330 4 0.364972 0.0763818 0.379655
476 4 0.0886483 0.00668135 0.0479582
205 2 0.144643 0.167345 0.296944
60 2 0.428481 0.147688 0.201055
436 4 0.184977 0.0686051 0.38009
438 4 0.029921 0.0893948 0.387828
439 4 0.0877897 0.171133 0.0391673
489 5 0.444921 0.128255 0.175447
490 5 0.473963 0.111182 0.262349
2 1 0.4772 0.108786 0.200919
368 4 0.421232 0.012175 0.0570753
199 2 0.0093319 0.179344 0.437332
55 2 0.296144 0.188499 0.35268
62 2 0.485532 0.0871397 0.287285
59 2 0.442246 0.113689 0.284015
568 5 0.0986646 0.123844 0.730362
342 4 0.264982 0.193193 0.53975
41 1 0.149619 0.143725 0.701872
634 6 0.139828 0.116334 0.961478
498 5 0.258707 0.0603604 0.528015
212 2 0.0131737 0.160206 0.85964
495 5 0.467841 0.143937 0.671426
599 6 0.257464 0.0101077 0.787229
598 6 0.466206 0.121405 0.968925
78 2 0.27453 0.10295 0.532701
215 2 0.0801975 0.0867852 0.754066
72 2 0.461299 0.109874 0.646198
567 5 0.172831 0.112388 0.721945
218 2 0.0707112 0.137843 0.722981
217 2 0.212669 0.121357 0.710024
276 3 0.311192 0.0587565 0.597445
311 3 0.171725 0.183197 0.676417
335 4 0.311885 0.135612 0.707091
339 4 0.369334 0.0663365 0.869968
448 4 0.0829449 0.184608 0.547984
485 4 0.0878419 0.0149852 0.55425
216 2 0.150739 0.0774422 0.74842
445 4 0.20232 0.0613536 0.880087
447 4 0.027042 0.0632454 0.875259
377 4 0.420292 0.015814 0.55982
6 1 0.27927 0.0360278 0.562899
71 2 0.4756 0.070271 0.720383
73 2 0.448206 0.164673 0.654895
340 4 0.416776 0.188621 0.552138
5 1 0.475039 0.142947 0.734193
496 5 0.48141 0.100015 0.751816
74 2 0.494818 0.0950648 0.793045
65 2 0.244842 0.0456876 0.97244
275 3 0.474622 0.174108 0.764732
565 5 0.00604533 0.192006 0.846436
75 2 0.22096 0.0417342 0.505566
68 2 0.30473 0.177182 0.874055
1 1 0.378951 0.248993 0.37377
9 1 0.232098 0.318182 0.0559268
37 1 0.0120178 0.243317 0.376951
271 3 0.423749 0.270288 0.361517
633 6 0.0329682 0.248486 0.132981
57 2 0.38419 0.311121 0.426519
559 5 0.0615182 0.249896 0.355931
487 5 0.357992 0.273027 0.406573
56 2 0.318472 0.253573 0.425279
100 2 0.268219 0.326588 0.487825
201 2 0.0819953 0.280017 0.323655
597 6 0.344031 0.230605 0.13366
602 6 0.258975 0.347868 0.307434
440 4 0.0955492 0.346914 0.0453221
200 2 0.0825063 0.229052 0.36771
86 2 0.479242 0.371603 0.223579
488 5 0.338216 0.201968 0.347177
83 2 0.43441 0.389682 0.259606
325 4 0.3036 0.290111 0.220438
327 4 0.470012 0.272206 0.230758
332 4 0.411645 0.333606 0.057997
503 5 0.254645 0.324623 0.000441118
435 4 0.14878 0.300498 0.218552
437 4 0.200417 0.246469 0.391292
279 3 0.199937 0.275311 0.0689428
504 5 0.251814 0.366157 0.0912145
454 4 0.195944 0.397969 0.392061
456 4 0.034118 0.391785 0.390012
90 2 0.230755 0.36674 0.128923
4 1 0.381439 0.254254 0.869821
12 1 0.265062 0.355068 0.575374
70 2 0.41886 0.277697 0.956964
102 2 0.184608 0.347482 0.588256
636 6 0.0253246 0.239574 0.631766
69 2 0.32896 0.20027 0.806427
310 3 0.0203964 0.275854 0.859817
566 5 0.0779566 0.259647 0.901775
242 2 0.0859076 0.376642 0.755874
282 3 0.283929 0.368895 0.619853
211 2 0.0950121 0.234023 0.907323
40 1 0.0371553 0.246917 0.862068
605 6 0.246847 0.338557 0.798088
494 5 0.38772 0.249993 0.92877
101 2 0.332202 0.359414 0.526082
214 2 0.0989356 0.297683 0.92354
510 5 0.210731 0.34183 0.559731
99 2 0.198148 0.339738 0.516131
334 4 0.305854 0.29432 0.710463
449 4 0.0807826 0.350379 0.557574
341 4 0.42676 0.355694 0.540317
600 6 0.367694 0.252237 0.626422
444 4 0.13295 0.28081 0.716352
446 4 0.200572 0.230033 0.882012
336 4 0.477854 0.297692 0.732997
88 2 0.268399 0.36427 0.983603
357 4 0.377486 0.399554 0.871081
67 2 0.356515 0.217037 0.95243
493 5 0.331608 0.212606 0.850196
239 2 0.146366 0.390691 0.719764
89 2 0.244452 0.292181 0.970977
465 4 0.0340369 0.391705 0.876038
274 3 0.412319 0.289464 0.842436
509 5 0.289826 0.34586 0.526207
463 4 0.205877 0.397623 0.887514
8 1 0.489302 0.451412 0.203492
501 5 0.469535 0.48511 0.22991
229 2 0.10502 0.427843 0.294022
44 1 0.168082 0.467751 0.229654
85 2 0.484956 0.525208 0.213592
574 5 0.167538 0.464746 0.170171
7 1 0.384512 0.578196 0.407655
639 6 0.0298254 0.569223 0.134977
572 5 0.00552069 0.510139 0.420235
313 3 0.0836198 0.539884 0.372466
601 6 0.497072 0.475977 0.46336
314 3 0.20419 0.492209 0.259329
637 6 0.144858 0.453403 0.468209
227 2 0.135797 0.437755 0.142103
500 5 0.340543 0.527111 0.422038
230 2 0.207402 0.485419 0.152322
348 4 0.375913 0.410942 0.379716
573 5 0.11706 0.436745 0.250091
344 4 0.322406 0.467152 0.231084
349 4 0.418205 0.50487 0.0523552
351 4 0.273492 0.518673 0.0486288
455 4 0.205248 0.559875 0.382967
457 4 0.0969466 0.518404 0.0503278
226 2 0.00197468 0.472748 0.434029
43 1 0.0503849 0.54801 0.38823
80 2 0.370261 0.552521 0.319122
82 2 0.323263 0.517047 0.464071
603 6 0.376925 0.571466 0.136485
87 2 0.287753 0.404226 0.0842522
79 2 0.328391 0.493262 0.394045
84 2 0.435238 0.470935 0.257662
502 5 0.465964 0.400383 0.22882
499 5 0.398437 0.583272 0.347356
571 5 0.0439667 0.592593 0.371134
228 2 0.0843633 0.421301 0.220046
95 2 0.417059 0.403977 0.718208
280 3 0.339987 0.558324 0.824041
46 1 0.0657739 0.582312 0.897606
47 1 0.130231 0.458489 0.717755
93 2 0.40734 0.523769 0.874947
640 6 0.157176 0.46494 0.961826
642 6 0.0463545 0.565364 0.636091
606 6 0.368626 0.556217 0.640914
92 2 0.409053 0.562168 0.936503
316 3 0.0901978 0.57364 0.93052
98 2 0.433961 0.437852 0.651608
580 5 0.118461 0.404363 0.729075
577 5 0.00895788 0.547521 0.887898
604 6 0.477276 0.451872 0.973404
240 2 0.192628 0.464409 0.66358
317 3 0.112225 0.481602 0.740058
579 5 0.1737 0.484467 0.6835
10 1 0.360204 0.568047 0.868175
353 4 0.302616 0.452346 0.717679
358 4 0.424706 0.501669 0.560786
360 4 0.259384 0.510908 0.553709
464 4 0.207784 0.57398 0.878204
466 4 0.109445 0.517951 0.552391
96 2 0.465866 0.436567 0.794433
505 5 0.397077 0.55204 0.892702
241 2 0.186948 0.523551 0.665356
508 5 0.447989 0.436444 0.693774
11 1 0.499972 0.465787 0.712457
516 5 0.225516 0.676934 0.0906818
15 1 0.260876 0.66004 0.0688595
608 6 0.25159 0.669294 0.305541
107 2 0.495095 0.788863 0.149027
320 3 0.145344 0.791922 0.286677
474 4 0.0430347 0.749513 0.381625
252 2 0.115705 0.794923 0.15371
225 2 0.0732396 0.622438 0.342925
345 4 0.492005 0.636819 0.204389
114 2 0.195478 0.649865 0.120242
123 2 0.220006 0.640391 0.483322
284 3 0.441644 0.798512 0.264718
285 3 0.263576 0.624531 0.087922
607 6 0.46903 0.773054 0.471131
277 3 0.408642 0.610709 0.441217
643 6 0.149741 0.79878 0.464185
111 2 0.222979 0.712992 0.0874613
472 4 0.192381 0.734541 0.368495
343 4 0.302214 0.614313 0.213798
514 5 0.465881 0.789949 0.176905
350 4 0.428197 0.681281 0.0520786
585 5 0.109091 0.792615 0.199039
366 4 0.364523 0.727011 0.376773
453 4 0.136392 0.606037 0.227899
458 4 0.0881604 0.685306 0.0565145
362 4 0.31658 0.78911 0.21902
14 1 0.473464 0.796661 0.236492
113 2 0.339311 0.705764 0.0258468
81 2 0.431202 0.619266 0.329397
50 1 0.147158 0.790824 0.237712
515 5 0.300301 0.701656 0.0321636
112 2 0.292174 0.733637 0.0229812
126 2 0.218261 0.700234 0.482909
251 2 0.189287 0.785161 0.161365
586 5 0.188731 0.789379 0.206914
110 2 0.425655 0.768516 0.160045
254 2 0.224327 0.793639 0.227084
224 2 0.0125721 0.601568 0.38038
519 5 0.495969 0.75781 0.705948
18 1 0.261612 0.696348 0.556867
611 6 0.264192 0.677151 0.803262
467 4 0.106908 0.686337 0.563014
17 1 0.470568 0.790017 0.707617
462 4 0.154602 0.610887 0.72247
235 2 0.0656866 0.637319 0.83626
591 5 0.10541 0.779472 0.726699
238 2 0.124642 0.668258 0.879004
481 4 0.216365 0.746155 0.887316
354 4 0.479945 0.609254 0.72789
646 6 0.143573 0.789719 0.973859
287 3 0.425029 0.773086 0.712678
125 2 0.309765 0.672402 0.614537
483 4 0.0361283 0.743184 0.890928
521 5 0.283556 0.662695 0.578259
288 3 0.268177 0.734003 0.581126
352 4 0.323355 0.615382 0.719267
522 5 0.232421 0.677347 0.506025
124 2 0.269613 0.62226 0.563808
359 4 0.434305 0.672683 0.554547
94 2 0.344697 0.632093 0.899228
375 4 0.384345 0.754913 0.88285
121 2 0.470311 0.714799 0.705237
91 2 0.387481 0.622897 0.946074
323 3 0.147385 0.759347 0.65872
53 1 0.150474 0.775983 0.704056
371 4 0.31125 0.775836 0.704298
265 2 0.0684127 0.763769 0.703133
610 6 0.485978 0.796214 0.969066
506 5 0.365109 0.609839 0.906861
578 5 0.0848758 0.634089 0.874274
264 2 0.101199 0.797099 0.765455
13 1 0.373538 0.904788 0.370269
49 1 0.0230388 0.888209 0.408936
475 4 0.095307 0.851588 0.0543052
273 3 0.197927 0.951108 0.0193672
66 2 0.233888 0.948434 0.11258
103 2 0.348496 0.937114 0.442436
104 2 0.358848 0.852706 0.449553
105 2 0.388115 0.838858 0.392289
106 2 0.355312 0.971381 0.377283
584 5 0.0329941 0.940994 0.407046
583 5 0.0410618 0.875591 0.359751
248 2 0.0695174 0.901406 0.32822
3 1 0.236531 0.987677 0.0362719
609 6 0.369493 0.897808 0.131591
645 6 0.0273808 0.896056 0.142194
283 3 0.38213 0.903882 0.32248
247 2 0.0571495 0.974136 0.379033
511 5 0.373619 0.864874 0.406823
512 5 0.356864 0.938552 0.397543
361 4 0.31828 0.952838 0.230261
363 4 0.470335 0.944931 0.222443
367 4 0.429063 0.84473 0.0392361
369 4 0.255672 0.836538 0.0646225
471 4 0.13601 0.947954 0.219304
473 4 0.199594 0.910828 0.395536
250 2 0.0146052 0.947344 0.443968
249 2 0.0406683 0.837962 0.357372
492 5 0.256395 0.986402 0.0909763
319 3 0.00473044 0.861741 0.448703
253 2 0.0775777 0.800617 0.211015
16 1 0.362866 0.889928 0.910559
52 1 0.0399194 0.896229 0.905172
259 2 0.0135693 0.879767 0.814422
589 5 0.00505348 0.914744 0.912013
612 6 0.372975 0.903445 0.629757
115 2 0.373403 0.969079 0.88873
116 2 0.409543 0.917285 0.825619
117 2 0.409826 0.863913 0.865855
122 2 0.493337 0.877017 0.712345
262 2 0.0557861 0.853433 0.838694
648 6 0.0417678 0.898517 0.633915
76 2 0.22738 0.956061 0.51988
322 3 0.0657489 0.893556 0.941136
118 2 0.310425 0.924163 0.917682
517 5 0.394331 0.891023 0.862002
286 3 0.349632 0.859218 0.947174
518 5 0.351278 0.932758 0.913209
497 5 0.253861 0.9786 0.554343
590 5 0.03473 0.874463 0.849408
370 4 0.310302 0.953151 0.707083
372 4 0.47496 0.963187 0.723566
376 4 0.420751 0.841345 0.548371
378 4 0.262908 0.848098 0.541316
480 4 0.145531 0.950908 0.716621
482 4 0.201307 0.895917 0.879366
484 4 0.077809 0.829938 0.552999
77 2 0.256385 0.950922 0.583382
266 2 0.234143 0.805551 0.739755
263 2 0.193593 0.82377 0.781464
261 2 0.00215784 0.932862 0.951029
592 5 0.194704 0.800343 0.746221
20 1 0.779862 0.10627 0.203793
272 3 0.502316 0.0957379 0.174161
207 2 0.949962 0.0260256 0.120446
21 1 0.618245 0.0243332 0.05432
131 2 0.864503 0.13726 0.16556
132 2 0.837833 0.187937 0.226661
134 2 0.824708 0.0683994 0.179883
208 2 0.977644 0.0811384 0.0300886
527 5 0.611618 0.0580853 0.0160249
632 6 0.923665 0.0302934 0.298749
563 5 0.939715 0.0489261 0.0150663
385 4 0.754395 0.174319 0.0449564
289 3 0.649927 0.164209 0.414289
328 4 0.512828 0.0547977 0.380753
380 4 0.634551 0.120204 0.216474
382 4 0.840202 0.0573005 0.363018
384 4 0.685985 0.0724523 0.377454
441 4 0.921114 0.183783 0.0511552
137 2 0.644321 0.0978932 0.00713808
129 2 0.647208 0.185473 0.303246
422 4 0.742061 0.00734056 0.0511561
133 2 0.768998 0.164966 0.24989
525 5 0.795477 0.1611 0.220243
526 5 0.8252 0.106113 0.178649
434 4 0.985205 0.132793 0.198795
290 3 0.739086 0.0670731 0.200852
613 6 0.79046 0.115068 0.454252
291 3 0.661386 0.0378351 0.0690879
387 4 0.572977 0.179434 0.0471534
23 1 0.794219 0.121663 0.719047
221 2 0.984279 0.0103604 0.584366
616 6 0.817548 0.132906 0.965023
396 4 0.57961 0.174416 0.544379
431 4 0.748733 0.00963251 0.531543
143 2 0.856585 0.153852 0.646601
144 2 0.854511 0.0956816 0.725825
145 2 0.807649 0.0800648 0.787322
635 6 0.912221 0.00656804 0.793538
394 4 0.746311 0.16973 0.55657
293 3 0.749524 0.106014 0.728802
219 2 0.899134 0.0696697 0.559109
213 2 0.965942 0.174443 0.829448
337 4 0.5231 0.0637232 0.890644
389 4 0.642054 0.123011 0.72192
391 4 0.869755 0.06466 0.890755
393 4 0.697059 0.0774215 0.886099
220 2 0.980339 0.0694589 0.594522
149 2 0.615874 0.063366 0.628544
533 5 0.58875 0.0366288 0.596631
443 4 0.956721 0.106897 0.707021
450 4 0.912126 0.176741 0.54678
531 5 0.821259 0.09686 0.745517
532 5 0.823066 0.152759 0.668394
146 2 0.806581 0.172813 0.643895
209 2 0.931465 0.0569923 0.972568
142 2 0.61934 0.168784 0.91176
148 2 0.55225 0.0381802 0.592094
139 2 0.666056 0.156482 0.872596
294 3 0.647635 0.0165663 0.561053
570 5 0.88779 0.0319024 0.538684
569 5 0.959277 0.0282837 0.580391
617 6 0.583634 0.016471 0.80379
24 1 0.604801 0.0101104 0.557905
530 5 0.657064 0.186 0.889356
222 2 0.845896 0.0126547 0.527342
136 2 0.573032 0.0465832 0.997555
19 1 0.670125 0.206008 0.393241
27 1 0.577271 0.352236 0.0664157
45 1 0.914865 0.325411 0.0544422
540 5 0.559688 0.311686 0.108744
638 6 0.914086 0.350076 0.30562
130 2 0.696324 0.258313 0.466277
202 2 0.967576 0.205589 0.453863
297 3 0.561135 0.381729 0.0672215
234 2 0.868977 0.337859 0.124353
576 5 0.903575 0.354397 0.0967979
400 4 0.857268 0.394059 0.389826
575 5 0.960559 0.362867 0.0230438
524 5 0.691286 0.256125 0.420707
127 2 0.707398 0.292578 0.396106
159 2 0.576347 0.285632 0.113431
433 4 0.976049 0.296229 0.23474
315 3 0.889673 0.280174 0.0445609
620 6 0.585 0.341236 0.313039
329 4 0.535733 0.24136 0.404879
615 6 0.700011 0.234293 0.133555
379 4 0.648883 0.293961 0.219853
381 4 0.806024 0.303573 0.21845
383 4 0.848099 0.230016 0.382533
386 4 0.758125 0.342184 0.0415297
560 5 0.994028 0.204464 0.422076
231 2 0.916773 0.395952 0.0879317
539 5 0.615432 0.353873 0.0235703
128 2 0.676942 0.254147 0.316366
162 2 0.523426 0.30018 0.132447
523 5 0.663985 0.215708 0.336016
160 2 0.629638 0.325604 0.0216428
402 4 0.70091 0.397943 0.397843
307 3 0.986212 0.262977 0.368575
581 5 0.863503 0.309819 0.540267
30 1 0.556519 0.325248 0.551556
48 1 0.916934 0.317867 0.546275
529 5 0.74617 0.256072 0.873289
641 6 0.919531 0.349531 0.797827
141 2 0.781162 0.2952 0.867993
546 5 0.574519 0.300245 0.592283
300 3 0.535218 0.303806 0.510049
623 6 0.589255 0.344779 0.819065
140 2 0.752042 0.222878 0.862773
174 2 0.564388 0.259594 0.582669
244 2 0.85147 0.337289 0.556467
582 5 0.950641 0.368322 0.573149
442 4 0.975324 0.290627 0.718974
22 1 0.694688 0.243179 0.892351
545 5 0.582923 0.381882 0.564659
292 3 0.684651 0.274444 0.910278
161 2 0.639161 0.387521 0.995975
338 4 0.522332 0.239193 0.896691
618 6 0.697416 0.231183 0.647882
388 4 0.648033 0.290426 0.733701
390 4 0.812965 0.287426 0.712302
392 4 0.882831 0.242675 0.884886
395 4 0.75061 0.34371 0.567889
171 2 0.601806 0.319314 0.627276
245 2 0.830292 0.27338 0.523644
233 2 0.973615 0.348208 0.987813
318 3 0.92933 0.28681 0.533828
246 2 0.991996 0.379228 0.579497
172 2 0.612083 0.399428 0.598372
155 2 0.80133 0.426038 0.270515
26 1 0.820477 0.47468 0.19371
223 2 0.969863 0.513226 0.424809
538 5 0.827019 0.465051 0.25214
296 3 0.848757 0.504896 0.160225
157 2 0.753722 0.459371 0.140067
25 1 0.720887 0.577599 0.402875
151 2 0.681596 0.531318 0.32814
232 2 0.981513 0.405507 0.0309061
347 4 0.544938 0.582401 0.385747
398 4 0.637683 0.448581 0.229272
401 4 0.897149 0.572233 0.386172
403 4 0.748959 0.505976 0.047152
405 4 0.584997 0.496777 0.0677567
452 4 0.979179 0.453363 0.213628
459 4 0.918787 0.506851 0.0461649
621 6 0.699014 0.556871 0.149812
536 5 0.705159 0.533643 0.364847
537 5 0.762541 0.445822 0.179242
158 2 0.865053 0.487886 0.273536
619 6 0.810896 0.445749 0.471368
154 2 0.709525 0.498576 0.367036
295 3 0.746414 0.585066 0.443284
278 3 0.526153 0.468136 0.173883
346 4 0.539043 0.410621 0.398966
156 2 0.731094 0.411202 0.200664
152 2 0.655857 0.587601 0.365277
28 1 0.715107 0.592661 0.873067
29 1 0.810888 0.468973 0.739409
164 2 0.654004 0.540824 0.937697
355 4 0.556904 0.412471 0.902714
541 5 0.676449 0.578521 0.915584
167 2 0.875235 0.479783 0.677962
236 2 0.980062 0.556798 0.86991
170 2 0.894589 0.507646 0.75043
542 5 0.724764 0.54827 0.864985
356 4 0.543952 0.57085 0.895654
407 4 0.656494 0.457953 0.717258
410 4 0.870377 0.561152 0.884551
412 4 0.768072 0.517834 0.551152
414 4 0.603757 0.524239 0.559233
461 4 0.988024 0.461971 0.719736
468 4 0.925081 0.496592 0.564937
166 2 0.745068 0.546355 0.827252
281 3 0.535886 0.495776 0.685239
543 5 0.773808 0.443204 0.694217
544 5 0.863337 0.485488 0.719708
622 6 0.812963 0.453633 0.961191
624 6 0.706305 0.56943 0.643524
411 4 0.70512 0.402329 0.889433
299 3 0.800402 0.475364 0.785026
97 2 0.536681 0.48273 0.799792
163 2 0.707707 0.513907 0.892884
507 5 0.502649 0.461956 0.771818
168 2 0.781715 0.426298 0.657026
237 2 0.990232 0.505296 0.897544
169 2 0.732344 0.420351 0.707119
173 2 0.572342 0.409141 0.54486
409 4 0.869015 0.400962 0.87996
165 2 0.65375 0.598923 0.911636
243 2 0.943866 0.40027 0.58667
644 6 0.927494 0.675721 0.302724
33 1 0.600625 0.679215 0.0753143
51 1 0.895703 0.672248 0.0738191
626 6 0.589282 0.679605 0.297257
180 2 0.820135 0.754945 0.267184
416 4 0.646355 0.787701 0.213779
551 5 0.652264 0.696689 0.0481802
587 5 0.954413 0.706872 0.0794156
185 2 0.68649 0.697906 0.0684326
549 5 0.808991 0.753147 0.223088
303 3 0.588244 0.671858 0.122569
399 4 0.810235 0.615385 0.21908
198 2 0.658459 0.733339 0.494559
186 2 0.533242 0.685776 0.0448591
32 1 0.801764 0.796495 0.199979
552 5 0.568865 0.686079 0.0300319
181 2 0.802126 0.716068 0.204219
535 5 0.68888 0.603106 0.394913
364 4 0.534035 0.734918 0.388546
397 4 0.640693 0.607901 0.228889
625 6 0.818018 0.791636 0.467762
404 4 0.770124 0.678267 0.0676671
256 2 0.985047 0.70869 0.0515293
418 4 0.867153 0.731475 0.3792
420 4 0.707477 0.738603 0.38459
321 3 0.866846 0.674831 0.106034
451 4 0.978647 0.618983 0.219318
184 2 0.656135 0.703703 0.00290477
513 5 0.520388 0.79414 0.25735
153 2 0.696925 0.636343 0.422369
588 5 0.878024 0.633991 0.0286073
470 4 0.973241 0.780911 0.217145
257 2 0.971701 0.732625 0.115896
109 2 0.529323 0.795711 0.302106
302 3 0.778539 0.795747 0.159678
258 2 0.836628 0.605924 0.0186969
255 2 0.905126 0.625056 0.00575547
647 6 0.924301 0.673397 0.802744
36 1 0.606968 0.674713 0.557787
54 1 0.942319 0.691547 0.554531
629 6 0.585911 0.670828 0.815092
557 5 0.559046 0.660491 0.589214
555 5 0.778993 0.762619 0.702037
324 3 0.978969 0.734347 0.554932
192 2 0.777779 0.786064 0.666869
183 2 0.580619 0.711212 0.992689
269 2 0.869473 0.69598 0.555505
196 2 0.53308 0.676405 0.579399
593 5 0.88609 0.6697 0.553951
298 3 0.732091 0.630622 0.845105
306 3 0.630289 0.651753 0.557782
197 2 0.54215 0.629736 0.621446
193 2 0.738966 0.729099 0.707643
628 6 0.817301 0.791778 0.968446
558 5 0.62173 0.717169 0.518686
373 4 0.538996 0.737829 0.889789
406 4 0.651615 0.629495 0.721983
408 4 0.807775 0.624588 0.73198
413 4 0.760347 0.674748 0.550454
594 5 0.950676 0.644846 0.555298
427 4 0.869791 0.743632 0.874464
429 4 0.695954 0.728804 0.891487
460 4 0.989167 0.621973 0.732241
195 2 0.604333 0.742144 0.51055
120 2 0.536403 0.772081 0.720611
425 4 0.635837 0.776399 0.721295
267 2 0.914392 0.606505 0.551503
268 2 0.853954 0.628667 0.557247
305 3 0.827431 0.754281 0.772966
479 4 0.976396 0.778978 0.717377
35 1 0.825336 0.776983 0.733504
270 2 0.9893 0.6497 0.544548
31 1 0.673301 0.881109 0.383768
547 5 0.694679 0.90849 0.331463
550 5 0.811341 0.835319 0.241609
627 6 0.691394 0.898351 0.127261
175 2 0.746055 0.877455 0.389562
176 2 0.737817 0.933117 0.331511
177 2 0.679396 0.927572 0.303663
178 2 0.707379 0.857685 0.455677
548 5 0.709744 0.868959 0.411558
210 2 0.891204 0.95855 0.12255
135 2 0.53149 0.957548 0.0490895
528 5 0.570869 0.977025 0.0681304
301 3 0.634337 0.877823 0.401317
309 3 0.860849 0.968641 0.0172456
365 4 0.538556 0.89274 0.374849
415 4 0.63845 0.952036 0.211259
417 4 0.811014 0.966091 0.214271
419 4 0.85524 0.899747 0.38494
421 4 0.76186 0.85175 0.0503208
423 4 0.58171 0.838321 0.0562643
469 4 0.980568 0.971312 0.232778
477 4 0.928491 0.857534 0.0526136
179 2 0.823834 0.832616 0.284153
138 2 0.573392 0.957978 0.106603
182 2 0.799692 0.865442 0.237538
150 2 0.580574 0.958136 0.484937
108 2 0.556526 0.805601 0.233427
614 6 0.579679 0.999384 0.296443
564 5 0.915707 0.994642 0.0984896
39 1 0.899801 0.998386 0.0405729
34 1 0.722242 0.912961 0.896861
554 5 0.683236 0.930553 0.901483
147 2 0.528074 0.968208 0.511964
534 5 0.570531 0.982153 0.511927
187 2 0.657225 0.928304 0.867253
188 2 0.678107 0.858754 0.824731
189 2 0.738845 0.860399 0.844908
190 2 0.67554 0.945673 0.940208
119 2 0.549087 0.86738 0.705922
194 2 0.905455 0.853895 0.745503
630 6 0.704728 0.898768 0.632458
520 5 0.505895 0.847612 0.707871
304 3 0.753317 0.921633 0.932237
553 5 0.712568 0.876395 0.852488
374 4 0.537715 0.909029 0.87714
424 4 0.651304 0.968274 0.706392
426 4 0.804157 0.948489 0.722715
428 4 0.865195 0.911392 0.881882
430 4 0.765307 0.84266 0.556442
432 4 0.590681 0.840043 0.541356
556 5 0.869196 0.828673 0.721999
486 4 0.926963 0.855156 0.549435
260 2 0.976262 0.911211 0.880439
191 2 0.8674 0.853881 0.689128
478 4 0.988813 0.963383 0.725041
312 3 0.889862 0.954736 0.533979
42 1 0.907521 0.997686 0.55165
ITEM: TIMESTEP
500
ITEM: NUMBER OF ATOMS
648
ITEM: BOX BOUNDS xy xz yz pp pp pp
-2.0989709327779991e+01 2.0481046897289090e+01 -1.3873277603134524e+01
-4.7107349461610781e-01 2.3605557880907298e+01 -9.8384827356391799e-02
-1.3755101440313462e+00 2.1024509144031413e+01 1.2948538629118952e-01
ITEM: ATOMS id type xs ys zs
206 2 0.22828 0.154998 0.233209
204 2 0.0912364 0.0953738 0.271309
38 1 0.154126 0.151254 0.219147
331 4 0.422801 0.189327 0.047772
595 6 0.484776 0.121332 0.472041
333 4 0.252257 0.175306 0.060861
631 6 0.15195 0.11583 0.466544
492 5 0.293579 0.0283423 0.0893926
561 5 0.102203 0.121053 0.235456
491 5 0.235102 0.0339127 0.0261375
63 2 0.284528 0.0512891 0.117249
272 3 0.478728 0.140882 0.142607
203 2 0.176927 0.104435 0.273212
596 6 0.273251 0.0131245 0.294608
64 2 0.232096 0.0584877 0.0572904
562 5 0.189529 0.140473 0.250562
308 3 0.165281 0.183949 0.186361
326 4 0.320061 0.124608 0.217401
330 4 0.38162 0.0702537 0.386943
476 4 0.092506 0.0228418 0.0613972
205 2 0.0717985 0.125463 0.215075
60 2 0.489136 0.160014 0.275523
436 4 0.217077 0.0664177 0.374831
438 4 0.0415424 0.0620665 0.375699
439 4 0.0831359 0.180902 0.0588694
489 5 0.478157 0.160596 0.232547
490 5 0.483991 0.0853834 0.205202
2 1 0.478474 0.129328 0.18881
59 2 0.48434 0.075375 0.24859
368 4 0.422408 0.0308552 0.0513039
202 2 0.0394537 0.168327 0.444801
78 2 0.28529 0.0676955 0.484631
62 2 0.484238 0.0588393 0.174659
61 2 0.476478 0.196128 0.228882
3 1 0.273381 0.0172847 0.0323355
66 2 0.329435 0.0275225 0.0966978
55 2 0.360833 0.190963 0.347195
75 2 0.304107 0.0203303 0.492195
568 5 0.147213 0.134291 0.770705
342 4 0.265366 0.18028 0.534889
41 1 0.163462 0.135431 0.715877
634 6 0.145659 0.129002 0.981267
498 5 0.278243 0.0333661 0.507857
69 2 0.311225 0.193943 0.796942
495 5 0.457237 0.154494 0.727811
599 6 0.254136 0.00798955 0.794233
598 6 0.478768 0.136922 0.964746
212 2 0.0227281 0.181629 0.867924
215 2 0.136598 0.101499 0.798343
275 3 0.438828 0.0672254 0.721548
567 5 0.142597 0.0833089 0.697713
218 2 0.146662 0.168624 0.784704
217 2 0.142177 0.0722727 0.654753
276 3 0.235523 0.0490468 0.579402
311 3 0.180579 0.17195 0.687403
335 4 0.309444 0.122291 0.707969
339 4 0.367557 0.0755766 0.866499
448 4 0.0897399 0.162818 0.554848
485 4 0.104917 0.0122937 0.553284
216 2 0.129966 0.0492548 0.723954
445 4 0.191981 0.0718742 0.881412
447 4 0.0369689 0.0830472 0.893756
377 4 0.426721 0.0131628 0.557649
6 1 0.255097 0.026159 0.563377
65 2 0.205323 0.0221652 0.994169
73 2 0.418253 0.142036 0.743346
340 4 0.422731 0.171849 0.539962
5 1 0.468279 0.111581 0.720904
72 2 0.488855 0.193721 0.735584
68 2 0.284518 0.192861 0.866558
220 2 -8.78552e-05 0.0559737 0.553944
1 1 0.394831 0.257112 0.40096
9 1 0.262247 0.350148 0.0249025
37 1 0.0143 0.223381 0.405294
271 3 0.43085 0.28402 0.428085
633 6 0.0323231 0.244459 0.145554
57 2 0.349251 0.296398 0.40874
559 5 0.0442873 0.270872 0.375456
487 5 0.355451 0.268901 0.385314
56 2 0.322435 0.244863 0.358606
88 2 0.286367 0.32716 0.110115
201 2 0.0288537 0.294951 0.360168
597 6 0.370753 0.23551 0.13141
602 6 0.249929 0.341052 0.297212
440 4 0.0873637 0.351774 0.0573519
200 2 0.073581 0.271209 0.348138
86 2 0.459914 0.368885 0.217958
90 2 0.184288 0.334352 0.014982
456 4 0.0291828 0.398062 0.394889
325 4 0.308865 0.286361 0.206164
327 4 0.470548 0.28654 0.221143
332 4 0.423017 0.353249 0.0485128
503 5 0.29152 0.339475 0.0669288
435 4 0.136888 0.291974 0.238785
437 4 0.201487 0.238073 0.387558
87 2 0.198199 0.323715 0.088173
504 5 0.211789 0.335731 0.0459197
100 2 0.261382 0.381555 0.489278
199 2 0.0930465 0.225156 0.41436
89 2 0.327566 0.342595 0.0518824
560 5 0.0513785 0.204602 0.422916
488 5 0.393034 0.213889 0.375285
99 2 0.225887 0.289386 0.498898
58 2 0.425402 0.206577 0.37185
4 1 0.371777 0.238381 0.857461
12 1 0.254672 0.342323 0.572949
70 2 0.408363 0.282818 0.932115
102 2 0.206236 0.259335 0.56963
636 6 0.033196 0.221042 0.635784
239 2 0.125829 0.388775 0.688018
463 4 0.196968 0.395959 0.886237
566 5 0.0202778 0.246871 0.93817
310 3 0.0669158 0.306412 0.86729
282 3 0.270783 0.351056 0.618027
242 2 0.0694287 0.370969 0.726279
40 1 0.0433268 0.263836 0.883218
605 6 0.248914 0.345485 0.806512
494 5 0.372183 0.25365 0.913039
67 2 0.33872 0.248282 0.936882
214 2 0.0307987 0.275534 0.970691
510 5 0.23049 0.292901 0.54369
357 4 0.358241 0.398427 0.878486
334 4 0.301561 0.292681 0.704876
449 4 0.115112 0.351109 0.567107
341 4 0.424442 0.343026 0.534243
600 6 0.374113 0.237633 0.620572
444 4 0.141472 0.274147 0.733694
446 4 0.205966 0.238373 0.900465
336 4 0.476633 0.303278 0.714616
274 3 0.407714 0.2464 0.830781
509 5 0.274259 0.385234 0.532149
493 5 0.318206 0.208373 0.839217
565 5 0.0394685 0.220022 0.849295
213 2 0.0611992 0.224826 0.81136
279 3 0.273102 0.357659 0.978154
502 5 0.464709 0.404335 0.236067
501 5 0.470578 0.485559 0.239041
229 2 0.115203 0.452931 0.30431
44 1 0.152086 0.457604 0.225255
84 2 0.44708 0.474612 0.276546
574 5 0.147779 0.467391 0.165913
7 1 0.362194 0.580177 0.388413
639 6 0.0294946 0.571478 0.143122
454 4 0.200919 0.401716 0.395754
277 3 0.341942 0.59887 0.412586
601 6 0.484147 0.4679 0.46119
314 3 0.181771 0.443929 0.235277
637 6 0.140246 0.453738 0.482973
227 2 0.119668 0.47836 0.151862
500 5 0.32972 0.531996 0.359295
230 2 0.170613 0.463137 0.133333
79 2 0.344869 0.515952 0.329109
573 5 0.115637 0.463612 0.261023
344 4 0.298245 0.451013 0.214216
349 4 0.417443 0.507481 0.0561058
351 4 0.24514 0.51481 0.0459702
455 4 0.187337 0.561213 0.386601
457 4 0.07918 0.516109 0.0467058
226 2 0.00137399 0.471829 0.402792
43 1 0.0428428 0.556251 0.404003
85 2 0.480847 0.523386 0.22201
82 2 0.289104 0.502702 0.366131
603 6 0.355628 0.560378 0.130241
228 2 0.0898447 0.477852 0.247974
8 1 0.480796 0.452283 0.20485
571 5 0.0317821 0.596587 0.387984
348 4 0.369895 0.405853 0.368181
313 3 0.0834245 0.559129 0.407089
80 2 0.432611 0.588434 0.34516
278 3 0.500123 0.460618 0.161287
83 2 0.44912 0.400373 0.27769
11 1 0.491591 0.46829 0.697017
280 3 0.395344 0.579343 0.832737
46 1 0.0211476 0.583624 0.88567
47 1 0.126808 0.459572 0.719382
93 2 0.29807 0.512317 0.856937
640 6 0.131924 0.461753 0.969628
642 6 0.0362019 0.56862 0.628932
606 6 0.370941 0.567474 0.635914
92 2 0.30519 0.534149 0.929636
465 4 0.0225662 0.40438 0.886736
578 5 0.0250527 0.575425 0.828665
238 2 0.0282077 0.600344 0.793968
577 5 0.021768 0.546161 0.922789
604 6 0.460176 0.453509 0.966444
240 2 0.204577 0.470481 0.688567
317 3 0.104993 0.481159 0.732514
579 5 0.180072 0.486055 0.701638
10 1 0.375321 0.573896 0.875582
353 4 0.307869 0.456656 0.713971
358 4 0.428073 0.51108 0.544476
360 4 0.26859 0.521226 0.542126
464 4 0.194985 0.565662 0.88507
466 4 0.0874556 0.508211 0.555325
96 2 0.453076 0.451496 0.778344
505 5 0.323591 0.536572 0.889946
241 2 0.198366 0.527622 0.694495
508 5 0.441821 0.424887 0.676963
101 2 0.302525 0.424557 0.544537
507 5 0.487493 0.477665 0.754386
236 2 0.0168558 0.508305 0.913511
237 2 0.00918509 0.54517 0.965294
98 2 0.437593 0.410368 0.634908
235 2 0.0325855 0.544166 0.819071
95 2 0.404654 0.401116 0.697758
580 5 0.108596 0.402875 0.71801
516 5 0.213939 0.678782 0.0446081
15 1 0.249976 0.669522 0.0770791
608 6 0.251383 0.668257 0.303268
107 2 0.418088 0.730412 0.22254
112 2 0.304751 0.711988 0.0140352
474 4 0.0430229 0.741692 0.378079
499 5 0.415242 0.604899 0.371937
225 2 0.0615242 0.635671 0.376166
345 4 0.471779 0.621791 0.215203
114 2 0.172921 0.659341 0.056105
113 2 0.335614 0.697263 0.0746314
108 2 0.489924 0.724604 0.184663
285 3 0.240051 0.64763 0.119349
607 6 0.487777 0.795611 0.474098
125 2 0.286977 0.659593 0.491725
586 5 0.153346 0.754158 0.207818
251 2 0.150729 0.74789 0.163277
472 4 0.207978 0.727405 0.392723
343 4 0.297319 0.617589 0.214122
514 5 0.438384 0.772561 0.223285
350 4 0.418163 0.674548 0.0505029
254 2 0.160303 0.726158 0.229727
366 4 0.358863 0.714855 0.399435
453 4 0.138544 0.613423 0.219852
458 4 0.0797922 0.679335 0.0543415
362 4 0.312948 0.777972 0.212015
515 5 0.301058 0.693183 0.0539107
643 6 0.149719 0.786709 0.468339
81 2 0.444844 0.644634 0.381261
124 2 0.234982 0.672117 0.481065
110 2 0.418744 0.794295 0.23205
50 1 0.152508 0.798427 0.233363
14 1 0.491059 0.798743 0.206987
111 2 0.225702 0.712687 0.0183686
316 3 0.0184329 0.619452 0.8997
18 1 0.261812 0.681652 0.569886
611 6 0.253663 0.672591 0.807956
467 4 0.0907344 0.678212 0.547555
371 4 0.295103 0.784693 0.724116