ITEM: TIMESTEP
500
ITEM: NUMBER OF ATOMS
648
ITEM: BOX BOUNDS xy xz yz pp pp pp
-2.0213500000000000e+01 2.0204000000000001e+01 -1.3472500000000000e+01
-1.6502800000000001e-01 2.3170027000000001e+01 0.0000000000000000e+00
-1.1815000000000000e+00 2.0830499000000000e+01 0.0000000000000000e+00
ITEM: ATOMS id type xs ys zs
2 1 0.459867 0.120509 0.198256
3 1 0.270667 0.0408499 0.0361864
38 1 0.143401 0.135891 0.18894
200 2 0.0153171 0.183265 0.452395
595 6 0.486371 0.114326 0.472727
62 2 0.475689 0.0684633 0.14226
631 6 0.14337 0.121729 0.46685
489 5 0.479469 0.14607 0.252018
64 2 0.262878 0.0580304 0.125374
596 6 0.260445 0.0145969 0.301718
203 2 0.111161 0.0514798 0.222404
204 2 0.194432 0.141485 0.259675
205 2 0.183729 0.197838 0.254871
206 2 0.0977092 0.0524602 0.149539
272 3 0.444167 0.139587 0.16595
562 5 0.12088 0.0765371 0.18515
308 3 0.137165 0.16031 0.153907
326 4 0.317899 0.130896 0.216017
330 4 0.362872 0.0562457 0.397078
331 4 0.429054 0.185215 0.0548425
333 4 0.262504 0.193296 0.056979
368 4 0.415668 0.0114555 0.0393799
436 4 0.206337 0.0716556 0.394318
438 4 0.0318692 0.0557581 0.393628
439 4 0.0852724 0.167455 0.0521168
476 4 0.0961132 0.00628283 0.0450987
65 2 0.267991 0.10777 0.0740673
61 2 0.474999 0.17937 0.26583
491 5 0.261608 0.0679888 0.0813813
561 5 0.172205 0.158119 0.239763
57 2 0.376703 0.154184 0.390824
490 5 0.483478 0.0880384 0.18311
487 5 0.37206 0.187033 0.37574
271 3 0.330727 0.195392 0.455623
70 2 0.310105 0.193566 0.830981
6 1 0.276222 0.0295486 0.562624
41 1 0.11496 0.106261 0.729825
634 6 0.144106 0.118057 0.969938
217 2 0.118298 0.173133 0.686071
71 2 0.431314 0.131441 0.677424
72 2 0.488586 0.0882952 0.658443
599 6 0.257907 0.00956602 0.795052
74 2 0.442493 0.16981 0.739985
77 2 0.342289 0.0140656 0.544235
215 2 0.189988 0.102456 0.716844
216 2 0.17718 0.165822 0.670013
67 2 0.340188 0.168715 0.884089
218 2 0.141938 0.0528678 0.76438
273 3 0.287121 0.0579467 0.991632
276 3 0.300158 0.0758024 0.561228
311 3 0.0822368 0.0966211 0.763532
335 4 0.304265 0.121844 0.708359
339 4 0.361894 0.0760419 0.88408
340 4 0.422762 0.176594 0.554316
342 4 0.257635 0.190126 0.549547
377 4 0.435697 0.0152985 0.562462
445 4 0.206907 0.064709 0.888179
447 4 0.0231826 0.0566718 0.889558
448 4 0.0825667 0.187381 0.538407
485 4 0.0885591 0.0126957 0.560762
78 2 0.191157 0.0140891 0.565736
496 5 0.456235 0.147792 0.714635
598 6 0.474447 0.118042 0.961421
567 5 0.138612 0.150372 0.690302
568 5 0.150548 0.0853152 0.73548
212 2 0.0266387 0.167773 0.907625
1 1 0.34666 0.209671 0.41021
9 1 0.255638 0.365968 0.0453152
37 1 0.00516448 0.22493 0.382113
55 2 0.368357 0.265213 0.340301
633 6 0.0339259 0.237697 0.151625
58 2 0.336831 0.279659 0.403908
488 5 0.350736 0.25586 0.382205
88 2 0.21541 0.275961 0.0407333
84 2 0.458813 0.381848 0.242365
199 2 0.0899471 0.251748 0.402814
102 2 0.22607 0.37779 0.467412
597 6 0.374069 0.248064 0.135921
602 6 0.273664 0.362723 0.291563
202 2 0.0838768 0.296833 0.356468
503 5 0.218037 0.312459 0.0251592
87 2 0.27582 0.327451 0.112461
456 4 0.0257762 0.392096 0.387813
56 2 0.378481 0.193746 0.330567
325 4 0.31715 0.29927 0.21943
327 4 0.46207 0.283861 0.242126
332 4 0.424393 0.351177 0.0559764
560 5 0.0622176 0.26067 0.381295
435 4 0.156506 0.297264 0.219236
437 4 0.203671 0.250283 0.390284
440 4 0.0873977 0.33798 0.0466874
504 5 0.279598 0.364327 0.0964921
4 1 0.37108 0.256573 0.885114
12 1 0.244879 0.337026 0.536243
40 1 0.032241 0.243789 0.896642
68 2 0.402329 0.229187 0.959716
636 6 0.0299597 0.245613 0.632411
310 3 0.0538274 0.287318 0.913304
493 5 0.409503 0.260892 0.930342
494 5 0.33935 0.201963 0.863936
282 3 0.219905 0.293181 0.520984
100 2 0.276593 0.385983 0.613554
101 2 0.249873 0.315578 0.625683
213 2 0.0762143 0.223372 0.955522
605 6 0.241059 0.332637 0.806399
509 5 0.261087 0.346895 0.594483
565 5 0.0519587 0.209729 0.917565
274 3 0.376385 0.293288 0.859873
510 5 0.24426 0.380671 0.508347
465 4 0.026957 0.390293 0.899476
334 4 0.311296 0.284398 0.724068
336 4 0.472532 0.288935 0.718249
341 4 0.422682 0.340035 0.547574
600 6 0.363202 0.240427 0.635599
444 4 0.141324 0.290545 0.716055
446 4 0.186083 0.215874 0.883355
449 4 0.0869315 0.354502 0.549007
69 2 0.447969 0.297105 0.933577
89 2 0.197009 0.307611 0.985658
463 4 0.188975 0.392549 0.888835
357 4 0.353386 0.387016 0.882988
95 2 0.401954 0.40141 0.728129
7 1 0.356573 0.566118 0.389668
8 1 0.480201 0.467225 0.239023
501 5 0.462235 0.41605 0.264956
44 1 0.136132 0.469994 0.203612
223 2 0.0961594 0.580754 0.361225
279 3 0.260847 0.404271 0.023702
81 2 0.381839 0.51046 0.414537
639 6 0.0318733 0.559215 0.120764
454 4 0.202541 0.423383 0.374497
86 2 0.487809 0.501962 0.151967
83 2 0.468587 0.435088 0.149486
224 2 0.0599358 0.565109 0.445961
348 4 0.365428 0.405244 0.390446
227 2 0.111655 0.438524 0.294811
229 2 0.212401 0.484596 0.175067
230 2 0.0626585 0.44537 0.252512
90 2 0.309121 0.40008 0.118068
314 3 0.123325 0.486477 0.165691
344 4 0.323352 0.469212 0.227388
349 4 0.417374 0.502688 0.0494236
351 4 0.254308 0.507794 0.0504507
455 4 0.192216 0.572027 0.376388
457 4 0.0922919 0.518406 0.0397845
499 5 0.391567 0.543968 0.386797
228 2 0.2045 0.479471 0.254772
80 2 0.413789 0.545272 0.349297
502 5 0.478166 0.467714 0.178487
571 5 0.0293294 0.573549 0.431544
572 5 0.0598877 0.573394 0.339947
573 5 0.18811 0.476291 0.212751
574 5 0.102004 0.449506 0.254485
601 6 0.471199 0.457924 0.480714
603 6 0.374153 0.573734 0.142647
637 6 0.137883 0.465853 0.460628
226 2 0.0619848 0.583915 0.295609
43 1 0.0164875 0.574134 0.371111
277 3 0.325028 0.555836 0.424935
278 3 0.485951 0.503479 0.265493
85 2 0.470589 0.417164 0.30982
10 1 0.369093 0.558669 0.891971
11 1 0.479374 0.472989 0.715073
46 1 0.0374238 0.583327 0.866512
47 1 0.134678 0.470832 0.724732
91 2 0.296338 0.549909 0.845424
640 6 0.150008 0.461041 0.96287
642 6 0.0357644 0.579354 0.63249
606 6 0.368833 0.571832 0.625847
280 3 0.396612 0.540246 0.889894
98 2 0.402151 0.459522 0.753583
96 2 0.473966 0.394935 0.692244
236 2 0.0754865 0.561007 0.936193
237 2 0.116607 0.591168 0.873689
604 6 0.469926 0.45015 0.964171
94 2 0.313507 0.498658 0.831621
242 2 0.118553 0.483252 0.637497
241 2 0.154566 0.43513 0.794109
317 3 0.112285 0.488162 0.749718
353 4 0.304239 0.447132 0.717988
358 4 0.413535 0.514225 0.553868
360 4 0.25857 0.523229 0.5467
464 4 0.205726 0.566327 0.87511
466 4 0.0940236 0.529214 0.5439
240 2 0.180143 0.428136 0.72484
506 5 0.324513 0.536139 0.852524
99 2 0.267261 0.420807 0.525142
508 5 0.42634 0.443778 0.736654
577 5 0.0797347 0.580477 0.895768
239 2 0.1512 0.443571 0.642276
579 5 0.153834 0.437701 0.748373
580 5 0.139494 0.469115 0.664053
643 6 0.14304 0.797186 0.466097
15 1 0.259267 0.678515 0.071105
608 6 0.246844 0.676994 0.296193
607 6 0.482115 0.788408 0.460272
107 2 0.452823 0.784363 0.149942
474 4 0.0278118 0.730699 0.380576
82 2 0.361432 0.642208 0.35394
522 5 0.246893 0.697343 0.499982
79 2 0.41686 0.629484 0.337863
254 2 0.133545 0.730662 0.13142
114 2 0.332828 0.674446 0.06
586 5 0.138672 0.764626 0.15588
123 2 0.274388 0.694464 0.470973
126 2 0.220503 0.709964 0.481983
515 5 0.221551 0.677164 0.0291992
516 5 0.307872 0.689403 0.0433405
285 3 0.252763 0.677146 0.119627
500 5 0.377805 0.615752 0.356323
343 4 0.313373 0.629136 0.21241
345 4 0.480874 0.613173 0.230685
350 4 0.438124 0.679245 0.0571315
362 4 0.312907 0.786218 0.219384
366 4 0.366478 0.734711 0.384211
453 4 0.147849 0.633192 0.203758
458 4 0.0827314 0.661773 0.0369853
472 4 0.191701 0.734891 0.375973
50 1 0.139934 0.763093 0.216898
514 5 0.438809 0.783658 0.192662
320 3 0.13494 0.725246 0.239411
113 2 0.184759 0.673847 0.0447984
110 2 0.403291 0.787064 0.196703
14 1 0.467402 0.779232 0.242498
251 2 0.132898 0.792424 0.130247
646 6 0.150324 0.784968 0.951878
18 1 0.244802 0.686881 0.559461
611 6 0.260728 0.677042 0.789806
610 6 0.483142 0.797826 0.976864
520 5 0.448956 0.755831 0.675306
462 4 0.145255 0.618459 0.715396
119 2 0.427861 0.719902 0.700603
120 2 0.476232 0.763856 0.790181
124 2 0.282969 0.636818 0.547328
263 2 0.188069 0.799545 0.775713
125 2 0.260858 0.637478 0.616448
591 5 0.103309 0.762064 0.704595
92 2 0.350101 0.624402 0.914401
264 2 0.0966538 0.751466 0.749051
265 2 0.0682422 0.740565 0.678142
521 5 0.267487 0.655804 0.574996
288 3 0.216871 0.691876 0.590955
352 4 0.312475 0.620502 0.713809
354 4 0.491665 0.626837 0.705075
122 2 0.429117 0.754151 0.635793
359 4 0.427665 0.682191 0.537754
371 4 0.309711 0.786516 0.710703
375 4 0.370191 0.732985 0.885726
112 2 0.22605 0.68592 0.984265
467 4 0.0986661 0.689898 0.553836
481 4 0.197998 0.729043 0.868467
483 4 0.0449356 0.740207 0.870457
519 5 0.487186 0.798746 0.764217
93 2 0.413248 0.631879 0.937846
111 2 0.317833 0.701266 0.99949
53 1 0.157001 0.795263 0.685446
316 3 0.0475601 0.605418 0.823412
505 5 0.374795 0.606134 0.918354
13 1 0.355546 0.879786 0.390668
49 1 0.00459204 0.873647 0.355443
492 5 0.260872 0.988246 0.0492641
584 5 0.0520425 0.913382 0.328282
247 2 0.0897761 0.921801 0.346764
103 2 0.379765 0.965552 0.364091
104 2 0.404211 0.94177 0.451311
105 2 0.400896 0.876287 0.463269
106 2 0.331482 0.914713 0.321076
138 2 0.492045 0.97891 0.0345108
253 2 0.146521 0.81081 0.289621
248 2 0.0508987 0.908444 0.429329
252 2 0.153194 0.847523 0.226177
609 6 0.363807 0.897824 0.135776
583 5 0.0187746 0.871348 0.412517
283 3 0.332508 0.834421 0.380957
585 5 0.144125 0.809286 0.243809
66 2 0.25955 0.961649 0.0161665
284 3 0.458347 0.7797 0.290224
361 4 0.305685 0.95546 0.218639
363 4 0.482583 0.96352 0.209574
367 4 0.418787 0.844406 0.047664
369 4 0.252144 0.836275 0.0404818
471 4 0.151559 0.96291 0.209555
473 4 0.200026 0.905392 0.379945
475 4 0.0909406 0.832118 0.0460335
645 6 0.0353603 0.889447 0.113056
511 5 0.388722 0.900411 0.439372
512 5 0.356117 0.922677 0.358423
250 2 0.0483526 0.923224 0.284861
63 2 0.247933 0.972299 0.0914848
16 1 0.365903 0.892521 0.904282
52 1 0.0257818 0.878862 0.871302
17 1 0.490604 0.805044 0.70311
75 2 0.201319 0.957334 0.570783
612 6 0.373784 0.896226 0.642175
115 2 0.34115 0.863059 0.816871
116 2 0.352632 0.949716 0.853367
117 2 0.368809 0.968385 0.925946
118 2 0.34993 0.818333 0.866909
76 2 0.280648 0.95366 0.539245
648 6 0.0429966 0.910213 0.6573
260 2 0.0843078 0.946582 0.928429
261 2 0.110745 0.916928 0.8787
592 5 0.194748 0.81144 0.731605
266 2 0.237249 0.833283 0.722953
286 3 0.379358 0.886927 0.948738
518 5 0.349035 0.854865 0.859471
589 5 0.0768031 0.920195 0.892732
497 5 0.299651 0.995325 0.551467
370 4 0.322011 0.951829 0.72776
372 4 0.474312 0.945643 0.724407
376 4 0.425899 0.840737 0.553448
378 4 0.255847 0.848987 0.543577
480 4 0.1487 0.950787 0.721571
482 4 0.206181 0.909173 0.887978
484 4 0.0901245 0.85205 0.565496
322 3 0.0185218 0.84676 0.837636
517 5 0.363853 0.939824 0.893414
323 3 0.169793 0.812236 0.640106
498 5 0.219007 0.999532 0.561475
20 1 0.7985 0.125033 0.228401
21 1 0.57963 0.011261 0.0280433
564 5 0.91972 0.0437325 0.0215292
60 2 0.509547 0.143157 0.276628
131 2 0.842393 0.139746 0.148545
132 2 0.871801 0.117832 0.227368
133 2 0.831353 0.0947928 0.292584
137 2 0.662945 0.0540852 0.0524856
134 2 0.776512 0.13192 0.140832
127 2 0.736678 0.197028 0.363548
290 3 0.758488 0.11614 0.248969
147 2 0.614231 0.0587644 0.478835
59 2 0.508497 0.076853 0.206786
328 4 0.526358 0.0495514 0.399299
380 4 0.642126 0.124947 0.221
382 4 0.859233 0.0568628 0.379846
384 4 0.707754 0.0713615 0.373684
385 4 0.747787 0.173629 0.0562089
387 4 0.58977 0.184107 0.0558537
422 4 0.748429 0.00534099 0.0534106
434 4 0.981328 0.123993 0.226721
441 4 0.915769 0.168023 0.0590797
525 5 0.838639 0.1146 0.251914
526 5 0.807039 0.135013 0.169748
527 5 0.622353 0.0307869 0.0679812
208 2 0.947346 0.0377495 0.129735
613 6 0.806997 0.109892 0.465862
614 6 0.585392 0.00697623 0.302761
632 6 0.932907 0.0106767 0.311516
130 2 0.688921 0.198522 0.312195
207 2 0.93907 0.080736 0.0453075
201 2 0.951872 0.144701 0.416122
559 5 0.991616 0.179398 0.415266
136 2 0.619342 0.0188612 0.111941
23 1 0.83401 0.137508 0.71307
24 1 0.614236 0.0129954 0.556893
42 1 0.947824 0.0204959 0.573635
150 2 0.67456 0.0911599 0.518758
140 2 0.722904 0.174849 0.895615
143 2 0.800203 0.0481992 0.716752
144 2 0.825856 0.103476 0.799765
145 2 0.846979 0.170504 0.801998
146 2 0.803555 0.0753385 0.647093
222 2 0.934609 0.0851987 0.603641
293 3 0.840623 0.172964 0.684621
294 3 0.639426 0.0138585 0.595466
617 6 0.585983 0.0145238 0.810465
337 4 0.538629 0.0703067 0.899124
389 4 0.651131 0.115349 0.716139
391 4 0.852657 0.0508618 0.888546
393 4 0.69787 0.0546734 0.896344
275 3 0.533436 0.172647 0.762859
396 4 0.607001 0.199761 0.550193
570 5 0.916387 0.0460256 0.584199
443 4 0.988808 0.135691 0.720093
450 4 0.906677 0.17152 0.558168
531 5 0.831934 0.136732 0.77339
532 5 0.811055 0.0837151 0.691927
219 2 0.874098 0.0221219 0.593368
210 2 0.906585 0.0460589 0.979187
616 6 0.804352 0.110595 0.973424
534 5 0.636807 0.0545499 0.513075
635 6 0.923307 0.00664896 0.80727
73 2 0.550346 0.114121 0.695883
431 4 0.756178 0.00827155 0.547806
495 5 0.514531 0.116694 0.689944
394 4 0.755897 0.185014 0.549204
139 2 0.690455 0.209399 0.810797
291 3 0.592432 0.0249041 0.981735
5 1 0.504903 0.148441 0.726194
211 2 0.993134 0.1946 0.81921
312 3 0.994081 0.0423196 0.573877
19 1 0.704881 0.248277 0.388031
27 1 0.598876 0.33779 0.0690821
45 1 0.888154 0.310026 0.0564349
129 2 0.735128 0.291373 0.469874
638 6 0.910517 0.338364 0.306908
402 4 0.698845 0.39159 0.393727
540 5 0.593979 0.326572 0.00832832
158 2 0.742204 0.390099 0.21248
524 5 0.708579 0.210159 0.353014
234 2 0.8681 0.373837 0.0810909
315 3 0.846663 0.274916 0.0692189
233 2 0.936238 0.272865 0.0327081
346 4 0.538684 0.400067 0.400429
297 3 0.613213 0.318179 0.102273
523 5 0.734523 0.261543 0.441617
289 3 0.681329 0.270233 0.379151
575 5 0.934493 0.309247 0.0374115
620 6 0.58034 0.337423 0.315608
329 4 0.539331 0.223482 0.394834
615 6 0.6915 0.233344 0.142519
379 4 0.638717 0.29971 0.214337
381 4 0.802745 0.292895 0.229367
383 4 0.869942 0.230277 0.389502
386 4 0.748797 0.346023 0.0570013
539 5 0.59253 0.383523 0.0792061
576 5 0.898359 0.364935 0.0665636
433 4 0.966154 0.286904 0.222133
155 2 0.798234 0.40567 0.25397
128 2 0.759297 0.246546 0.458706
307 3 0.976905 0.235398 0.357553
318 3 0.92054 0.335217 0.484758
232 2 0.972269 0.345863 0.0318798
22 1 0.704723 0.244997 0.898131
30 1 0.608108 0.345501 0.558029
48 1 0.917813 0.338945 0.533339
409 4 0.86291 0.401072 0.882104
641 6 0.929106 0.353824 0.801239
142 2 0.673235 0.261725 0.822705
530 5 0.687815 0.236752 0.840217
162 2 0.592453 0.290607 0.992649
623 6 0.581568 0.345503 0.795384
172 2 0.5176 0.319688 0.559496
173 2 0.528622 0.267836 0.567211
355 4 0.539047 0.394544 0.904259
411 4 0.691868 0.391708 0.880977
244 2 0.89243 0.299668 0.620655
245 2 0.874377 0.255896 0.561292
292 3 0.705876 0.280804 0.921497
300 3 0.639033 0.331449 0.552821
545 5 0.54982 0.31091 0.562734
338 4 0.527644 0.224349 0.872814
618 6 0.713842 0.240805 0.635901
388 4 0.653862 0.289863 0.718466
390 4 0.813713 0.282843 0.722772
392 4 0.863193 0.224102 0.90077
395 4 0.765497 0.366865 0.558431
582 5 0.943827 0.391091 0.555175
141 2 0.738121 0.211792 0.958089
442 4 0.98512 0.29879 0.725508
581 5 0.894449 0.29719 0.57502
168 2 0.75786 0.398507 0.726599
566 5 0.994597 0.222257 0.851093
159 2 0.573423 0.340278 0.980606
214 2 0.976817 0.24493 0.835053
529 5 0.720642 0.207076 0.916403
243 2 0.947012 0.398178 0.600437
25 1 0.679549 0.548398 0.369818
26 1 0.811642 0.475355 0.201858
151 2 0.756015 0.545953 0.363324
295 3 0.635362 0.527501 0.355301
400 4 0.871901 0.408953 0.379276
313 3 0.981605 0.577511 0.351352
157 2 0.895135 0.540796 0.206181
156 2 0.880425 0.475724 0.235907
296 3 0.790836 0.492287 0.173555
347 4 0.541521 0.564569 0.387099
398 4 0.631458 0.448558 0.220067
401 4 0.858719 0.572683 0.377881
403 4 0.741131 0.512797 0.0468296
405 4 0.578695 0.516475 0.0496023
452 4 0.97783 0.456806 0.21237
459 4 0.922547 0.50658 0.0484461
538 5 0.781094 0.422275 0.225238
536 5 0.713244 0.525203 0.356339
537 5 0.865602 0.500762 0.219159
225 2 0.99979 0.56845 0.46292
619 6 0.807109 0.463261 0.457843
621 6 0.687778 0.558732 0.134037
154 2 0.697899 0.491722 0.32731
160 2 0.588354 0.409193 0.0486906
535 5 0.706096 0.594806 0.404297
161 2 0.592861 0.394233 0.123236
231 2 0.937561 0.40041 0.0673597
28 1 0.668852 0.535118 0.888033
29 1 0.838893 0.472969 0.731938
238 2 0.949207 0.555284 0.88204
298 3 0.642654 0.490472 0.90006
165 2 0.616684 0.562438 0.927025
167 2 0.802671 0.462006 0.646856
97 2 0.539216 0.450253 0.686507
170 2 0.867874 0.517557 0.651722
299 3 0.875553 0.496122 0.761299
356 4 0.515816 0.560369 0.879934
407 4 0.63981 0.462017 0.716941
410 4 0.857516 0.559222 0.877402
412 4 0.769987 0.532841 0.541515
414 4 0.59116 0.519891 0.563193
461 4 0.98703 0.46371 0.719515
468 4 0.926337 0.529924 0.544167
541 5 0.654306 0.573399 0.906474
507 5 0.497898 0.438021 0.695466
543 5 0.79382 0.422635 0.751001
544 5 0.833577 0.488791 0.675829
622 6 0.792225 0.454856 0.970468
624 6 0.702193 0.574243 0.635592
169 2 0.795248 0.402153 0.788814
235 2 0.983725 0.539817 0.934657
578 5 0.986249 0.556596 0.892976
174 2 0.662909 0.429386 0.540065
281 3 0.507465 0.518115 0.723614
166 2 0.738441 0.536443 0.842788
246 2 0.956282 0.425094 0.527336
542 5 0.719815 0.558106 0.859452
546 5 0.622143 0.399495 0.550174
171 2 0.590878 0.409327 0.54425
644 6 0.918646 0.681407 0.285802
33 1 0.612487 0.689875 0.0647268
51 1 0.92523 0.682643 0.0541026
626 6 0.602242 0.682061 0.308056
186 2 0.620516 0.735997 0.147568
180 2 0.778948 0.73047 0.173695
181 2 0.784539 0.70776 0.245772
152 2 0.746423 0.609054 0.419309
108 2 0.52767 0.790163 0.180555
153 2 0.690752 0.61916 0.421726
109 2 0.543767 0.785996 0.255726
256 2 0.84015 0.63028 0.0303468
257 2 0.855812 0.693047 0.0634443
32 1 0.824794 0.794109 0.233883
198 2 0.55583 0.683647 0.459644
588 5 0.943655 0.649614 0.028776
303 3 0.650044 0.685245 0.0657467
321 3 0.951296 0.716684 0.0854456
364 4 0.538896 0.744203 0.376154
397 4 0.654606 0.625646 0.231476
399 4 0.809388 0.604617 0.207447
404 4 0.739627 0.666951 0.0657035
470 4 0.9723 0.786795 0.191571
418 4 0.867148 0.738193 0.37158
420 4 0.707258 0.742664 0.385097
451 4 0.99508 0.631036 0.204856
587 5 0.8706 0.667143 0.0493677
549 5 0.798109 0.739607 0.214833
195 2 0.626518 0.704566 0.472991
551 5 0.571347 0.659907 0.0215693
552 5 0.595171 0.707207 0.116038
258 2 0.983374 0.655421 0.0348149
183 2 0.555069 0.700482 0.12169
513 5 0.514279 0.780291 0.224014
270 2 0.968177 0.698628 0.480737
184 2 0.530719 0.650815 0.0294176
625 6 0.812456 0.789705 0.4762
558 5 0.585274 0.682066 0.486716
255 2 0.922716 0.618524 -0.00245543
647 6 0.921233 0.677439 0.80192
36 1 0.572908 0.671517 0.546396
54 1 0.936381 0.70831 0.562692
629 6 0.581998 0.676776 0.80412
557 5 0.615812 0.677617 0.581349
163 2 0.738826 0.596051 0.83738
594 5 0.94227 0.681598 0.517153
305 3 0.783413 0.742437 0.708604
193 2 0.743371 0.777847 0.786645
196 2 0.657652 0.694681 0.570593
197 2 0.606747 0.658061 0.622273
593 5 0.891101 0.671759 0.596112
164 2 0.676055 0.615324 0.895121
268 2 0.859577 0.63508 0.577865
269 2 0.881194 0.681323 0.637091
628 6 0.810757 0.78505 0.971767
306 3 0.530983 0.654046 0.566734
324 3 0.969387 0.75227 0.569996
373 4 0.525632 0.731927 0.88617
406 4 0.647017 0.626876 0.724457
408 4 0.807423 0.621838 0.730258
413 4 0.757122 0.687534 0.553524
425 4 0.642529 0.797885 0.741521
427 4 0.858441 0.731846 0.878832
429 4 0.68902 0.720165 0.888438
460 4 0.982838 0.622126 0.721515
479 4 0.987397 0.785655 0.721445
35 1 0.799405 0.78758 0.715823
267 2 0.924154 0.638498 0.516936
185 2 0.577783 0.644624 0.982251
31 1 0.691271 0.902796 0.386797
249 2 0.98969 0.847095 0.444351
550 5 0.827317 0.830105 0.191108
627 6 0.70675 0.908477 0.1382
175 2 0.752891 0.942757 0.316412
176 2 0.769619 0.906158 0.406117
177 2 0.717332 0.873786 0.456987
178 2 0.68737 0.937492 0.307587
182 2 0.842287 0.871558 0.202267
309 3 0.892345 0.955143 0.0209413
209 2 0.936878 0.970971 0.128335
179 2 0.812743 0.814329 0.149172
301 3 0.648099 0.889814 0.401001
135 2 0.531233 0.979705 0.0989592
365 4 0.541533 0.901084 0.381898
415 4 0.632797 0.952873 0.204691
417 4 0.81978 0.962313 0.224052
419 4 0.871784 0.898843 0.391643
421 4 0.758816 0.842134 0.0604077
423 4 0.590474 0.838708 0.0573096
469 4 0.981775 0.948865 0.217705
477 4 0.919109 0.847675 0.0509905
563 5 0.932302 1.00106 0.10573
547 5 0.728631 0.894182 0.41654
548 5 0.714776 0.932819 0.335069
319 3 0.961301 0.859184 0.340481
416 4 0.651338 0.797459 0.228916
528 5 0.529116 0.986699 0.0542033
39 1 0.910848 0.994073 0.0474501
302 3 0.836364 0.804334 0.281077
34 1 0.694927 0.908319 0.915114
554 5 0.695512 0.85828 0.92792
148 2 0.541773 0.975567 0.508869
149 2 0.547354 0.930892 0.560633
187 2 0.69295 0.826935 0.900652
188 2 0.700806 0.901487 0.820813
189 2 0.698804 0.961042 0.848021
190 2 0.690797 0.850791 0.973097
555 5 0.775456 0.803355 0.758111
262 2 0.943664 0.862104 0.879424
630 6 0.698834 0.899323 0.635225
590 5 0.985276 0.886584 0.89122
304 3 0.693288 0.934676 0.951135
191 2 0.864681 0.8711 0.710611
374 4 0.536282 0.907279 0.894483
424 4 0.649078 0.959923 0.71991
426 4 0.829983 0.963247 0.709783
428 4 0.865443 0.899282 0.890127
430 4 0.747716 0.841866 0.548709
432 4 0.586867 0.845381 0.550326
478 4 0.991431 0.966966 0.734282
486 4 0.934971 0.849949 0.555015
533 5 0.562548 0.971113 0.544789
553 5 0.701478 0.925582 0.856294
192 2 0.792889 0.845406 0.768046
287 3 0.504949 0.843524 0.676516
121 2 0.51279 0.834929 0.787658
569 5 0.914994 0.966698 0.561593
556 5 0.852289 0.82948 0.703371
220 2 0.871832 0.947865 0.562239
221 2 0.930196 0.941017 0.54797
194 2 0.881261 0.823078 0.680827
259 2 0.996444 0.923127 0.914219
ITEM: TIMESTEP
1000
ITEM: NUMBER OF ATOMS
648
ITEM: BOX BOUNDS xy xz yz pp pp pp
-2.0213500000000000e+01 2.0204000000000001e+01 -1.3472500000000000e+01
-1.6502800000000001e-01 2.3170027000000001e+01 0.0000000000000000e+00
-1.1815000000000000e+00 2.0830499000000000e+01 0.0000000000000000e+00
ITEM: ATOMS id type xs ys zs
2 1 0.493272 0.134429 0.18784
205 2 0.060069 0.126621 0.240186
38 1 0.135334 0.138375 0.212186
490 5 0.440477 0.12788 0.189714
595 6 0.469583 0.117991 0.472591
62 2 0.422341 0.130612 0.150637
631 6 0.140459 0.12267 0.455976
3 1 0.256703 0.00261698 0.0390743
64 2 0.191857 0.0215812 0.0383454
596 6 0.26077 0.0211136 0.303581
203 2 0.143732 0.067904 0.190639
204 2 0.0585405 0.0653061 0.214426
59 2 0.416601 0.125443 0.226174
206 2 0.202201 0.13379 0.173009
78 2 0.293922 0.0641244 0.483059
562 5 0.160307 0.110408 0.184141
308 3 0.15908 0.184536 0.215629
326 4 0.309827 0.132511 0.221783
330 4 0.37819 0.0666097 0.370808
331 4 0.418293 0.171232 0.0488277
333 4 0.25147 0.169632 0.0349145
368 4 0.430155 0.0125405 0.0382838
436 4 0.19639 0.0613407 0.38572
438 4 0.0264943 0.0576817 0.391661
439 4 0.0878093 0.186153 0.0506468
476 4 0.0847564 0.00871461 0.0599658
492 5 0.269745 0.0182287 0.0980883
60 2 0.482248 0.122041 0.278273
491 5 0.210866 0.00345459 0.0147816
561 5 0.0816459 0.10621 0.229069
63 2 0.239251 0.0167653 0.125938
55 2 0.327739 0.206897 0.446062
58 2 0.381792 0.189036 0.460468
66 2 0.297892 0.0113347 0.121674
488 5 0.358975 0.199295 0.431888
568 5 0.152525 0.0902114 0.726299
6 1 0.23248 0.00490509 0.541806
41 1 0.129101 0.123882 0.720108
634 6 0.134555 0.121184 0.958896
217 2 0.139816 0.184546 0.657908
71 2 0.496926 0.142013 0.779794
498 5 0.2828 0.0322308 0.513511
599 6 0.267132 0.0142727 0.79785
74 2 0.428229 0.123092 0.779586
377 4 0.414151 0.0122717 0.556782
215 2 0.187816 0.0967114 0.703505
75 2 0.309085 0.0160478 0.519854
567 5 0.157611 0.163188 0.677344
218 2 0.141712 0.0613686 0.760224
275 3 0.420619 0.0998352 0.668697
276 3 0.199737 0.0154454 0.530987
311 3 0.0920814 0.118137 0.745064
335 4 0.31707 0.113604 0.71372
339 4 0.367067 0.0678417 0.891603
340 4 0.421891 0.172217 0.55664
342 4 0.254031 0.172767 0.557622
216 2 0.194345 0.170992 0.65681
445 4 0.187164 0.0629821 0.878872
447 4 0.0217085 0.059661 0.882085
448 4 0.0841015 0.184846 0.552183
485 4 0.0884234 0.00300562 0.550359
5 1 0.459781 0.119733 0.694841
496 5 0.463026 0.13404 0.753467
598 6 0.476808 0.121694 0.959825
67 2 0.305789 0.185234 0.925922
1 1 0.381346 0.222647 0.37812
9 1 0.270399 0.359308 0.0400966
37 1 0.040968 0.232847 0.388513
57 2 0.360236 0.259753 0.30869
633 6 0.0234994 0.225623 0.137677
454 4 0.193816 0.392088 0.376682
307 3 0.0711969 0.221254 0.370862
88 2 0.189898 0.287228 0.0554611
279 3 0.305506 0.383505 0.00917768
199 2 0.0215123 0.298904 0.393067
85 2 0.402913 0.375068 0.198877
597 6 0.362477 0.230021 0.124527
602 6 0.25015 0.34253 0.296325
202 2 0.0897003 0.31951 0.382271
503 5 0.21929 0.312635 0.0244369
87 2 0.241026 0.340372 0.126746
271 3 0.418944 0.223187 0.360257
504 5 0.272466 0.368399 0.0990422
325 4 0.299267 0.279896 0.215274
327 4 0.475714 0.280862 0.215635
332 4 0.425701 0.350774 0.0626911
560 5 0.0509202 0.286107 0.393271
435 4 0.152013 0.292097 0.204688
437 4 0.185812 0.226502 0.36918
440 4 0.0770651 0.339895 0.0672652
282 3 0.275261 0.368842 0.491151
56 2 0.319566 0.246567 0.371239
487 5 0.351444 0.24322 0.35109
348 4 0.360519 0.392515 0.402117
314 3 0.121313 0.394541 0.208871
4 1 0.363109 0.243049 0.861578
12 1 0.262634 0.346383 0.534017
40 1 0.0309195 0.253709 0.883411
102 2 0.193813 0.353828 0.556903
636 6 0.0231309 0.230285 0.627189
100 2 0.290056 0.331424 0.614774
493 5 0.403275 0.233288 0.886823
566 5 0.0565207 0.239373 0.838174
211 2 0.045012 0.19848 0.827866
68 2 0.398839 0.198686 0.909443
101 2 0.335515 0.344126 0.555343
214 2 0.0702139 0.266857 0.802728
605 6 0.255962 0.354364 0.809412
509 5 0.296184 0.335126 0.569359
494 5 0.311205 0.209488 0.888819
274 3 0.36885 0.273128 0.826068
510 5 0.217472 0.334984 0.565059
357 4 0.35859 0.388485 0.889521
334 4 0.306351 0.293683 0.72613
336 4 0.477147 0.293474 0.722834
341 4 0.414679 0.324229 0.54431
600 6 0.368766 0.227105 0.64298
444 4 0.144026 0.295325 0.708501
446 4 0.190015 0.230805 0.879892
449 4 0.0824697 0.342883 0.54691
69 2 0.443615 0.257922 0.871118
240 2 0.101918 0.392364 0.736852
99 2 0.201242 0.300908 0.593331
89 2 0.212843 0.294722 0.98278
70 2 0.278427 0.214481 0.874228
310 3 0.0287437 0.292251 0.890359
97 2 0.43291 0.372911 0.669604
7 1 0.362402 0.560213 0.374556
43 1 0.0175474 0.540771 0.396419
501 5 0.432727 0.407902 0.223874
44 1 0.134726 0.439315 0.214674
223 2 0.0501127 0.593986 0.323851
572 5 0.0169527 0.557766 0.340926
81 2 0.380952 0.516851 0.436409
639 6 0.0402546 0.57326 0.130697
456 4 0.0403002 0.410983 0.376252
277 3 0.324084 0.523209 0.35782
601 6 0.481434 0.450001 0.473011
8 1 0.481076 0.450011 0.199388
637 6 0.1447 0.459823 0.455815
227 2 0.111015 0.498722 0.229345
229 2 0.218796 0.470852 0.23571
230 2 0.0575331 0.433587 0.196452
225 2 0.0783566 0.579945 0.465439
84 2 0.424508 0.407106 0.268738
344 4 0.302206 0.459217 0.227516
349 4 0.41841 0.507009 0.063159
351 4 0.255599 0.508734 0.0543614
455 4 0.206868 0.572504 0.373705
457 4 0.107184 0.525751 0.052726
499 5 0.39673 0.555039 0.415201
228 2 0.19866 0.523232 0.236867
80 2 0.416776 0.588663 0.443819
278 3 0.494778 0.452811 0.152787
603 6 0.37839 0.587164 0.143095
574 5 0.0979787 0.459716 0.2111
573 5 0.188396 0.482027 0.230776
571 5 0.0670503 0.582698 0.422361
90 2 0.305423 0.400638 0.121679
10 1 0.391189 0.585062 0.889096
11 1 0.467754 0.431447 0.737852
46 1 0.0298835 0.548008 0.873242
47 1 0.152724 0.474304 0.713543
91 2 0.312705 0.546679 0.841126
640 6 0.145179 0.450244 0.983486
642 6 0.036408 0.563092 0.648629
606 6 0.364549 0.559324 0.625215
463 4 0.20458 0.405456 0.888961
98 2 0.497213 0.498768 0.793584
237 2 0.115883 0.573403 0.870685
507 5 0.442694 0.412588 0.683194
580 5 0.170408 0.450315 0.673742
604 6 0.478805 0.448529 0.97172
465 4 0.0380423 0.406316 0.884458
242 2 0.19367 0.471236 0.636759
579 5 0.119627 0.433175 0.751773
317 3 0.170427 0.519812 0.719998
353 4 0.314277 0.456657 0.725406
358 4 0.425326 0.500134 0.564131
360 4 0.264373 0.506087 0.535658
464 4 0.208134 0.568881 0.877446
466 4 0.0983199 0.516591 0.545255
96 2 0.427062 0.4328 0.657632
506 5 0.353522 0.579375 0.843729
578 5 7.11749e-05 0.57572 0.881321
508 5 0.478911 0.483638 0.752653
577 5 0.0855183 0.583937 0.861844
239 2 0.163891 0.410298 0.67948
505 5 0.366949 0.541917 0.929084
241 2 0.109552 0.440296 0.793841
95 2 0.477194 0.513569 0.726547
92 2 0.323671 0.519791 0.928903
281 3 0.478941 0.408268 0.769885
93 2 0.386583 0.534776 0.964316
316 3 0.0147054 0.504491 0.887873
14 1 0.480937 0.793916 0.196084
15 1 0.234307 0.660165 0.0424879
608 6 0.256342 0.694195 0.29781
607 6 0.465054 0.778524 0.469801
500 5 0.385066 0.615438 0.355198
474 4 0.0474898 0.761558 0.371148
224 2 0.0996365 0.616606 0.401218
284 3 0.474297 0.796334 0.148038
126 2 0.284467 0.636566 0.482922
254 2 0.0607403 0.728717 0.175963
114 2 0.267104 0.606595 0.0357514
586 5 0.101971 0.760679 0.177338
112 2 0.264678 0.717159 0.117399
111 2 0.309604 0.66585 0.0728637
515 5 0.237409 0.698247 0.0823582
516 5 0.277814 0.647928 0.0418242
285 3 0.203346 0.643876 0.00603168
79 2 0.426819 0.645623 0.359241
343 4 0.319005 0.638254 0.214959
345 4 0.483296 0.625021 0.226625
350 4 0.433532 0.680933 0.0552258
362 4 0.319383 0.794452 0.213359
366 4 0.367511 0.737555 0.383365
453 4 0.137778 0.622109 0.222564
458 4 0.0913027 0.677761 0.0420434
472 4 0.198403 0.740265 0.3822
50 1 0.135385 0.774445 0.225604
643 6 0.15342 0.794651 0.466883
320 3 0.117352 0.756077 0.269317
113 2 0.207837 0.710831 0.0820493
251 2 0.116808 0.78465 0.139293
82 2 0.365553 0.621233 0.318936
514 5 0.447958 0.798467 0.23899
107 2 0.460862 0.807568 0.282666
123 2 0.21937 0.631525 0.492772
646 6 0.152122 0.790467 0.967535
18 1 0.276552 0.666041 0.564472
611 6 0.26774 0.680069 0.806219
467 4 0.104181 0.674149 0.553578
520 5 0.479758 0.753756 0.670665
462 4 0.162594 0.618753 0.720735
119 2 0.501984 0.736276 0.688696
120 2 0.474317 0.76438 0.788557
124 2 0.200645 0.671656 0.577189
481 4 0.200591 0.734144 0.883183
125 2 0.240157 0.685164 0.637966
266 2 0.182398 0.741794 0.687153
610 6 0.483085 0.788501 0.968997
264 2 0.113978 0.792677 0.7831
483 4 0.0470413 0.740735 0.882796
521 5 0.237216 0.674935 0.593462