  12  12   0   0
  0.2091076E+02  0.6307400E-09  0.6307400E-09  0.6307400E-09  0.5000000E-15
   1.0000000000000000E-004
  CAR 
 cubic-FASnI3                            
      9.80491474    -22.27791561  301      1.68394831      1.00000000
    -22.278  0.0000E+00  0.0000E+00
    -22.171  0.0000E+00  0.0000E+00
    -22.064  0.0000E+00  0.0000E+00
    -21.957  0.0000E+00  0.0000E+00
    -21.850  0.0000E+00  0.0000E+00
    -21.743  0.0000E+00  0.0000E+00
    -21.636  0.0000E+00  0.0000E+00
    -21.529  0.0000E+00  0.0000E+00
    -21.422  0.0000E+00  0.0000E+00
    -21.315  0.0000E+00  0.0000E+00
    -21.208  0.0000E+00  0.0000E+00
    -21.102  0.1144E-16  0.1223E-17
    -20.995  0.6034E-08  0.6453E-09
    -20.888  0.4757E-03  0.5087E-04
    -20.781  0.1557E-01  0.1716E-02
    -20.674  0.2652E-02  0.2000E-02
    -20.567  0.3920E-06  0.2000E-02
    -20.460  0.1000E-13  0.2000E-02
    -20.353  0.0000E+00  0.2000E-02
    -20.246  0.0000E+00  0.2000E-02
    -20.139  0.0000E+00  0.2000E-02
    -20.032  0.0000E+00  0.2000E-02
    -19.925  0.0000E+00  0.2000E-02
    -19.818  0.0000E+00  0.2000E-02
    -19.711  0.0000E+00  0.2000E-02
    -19.604  0.0000E+00  0.2000E-02
    -19.497  0.0000E+00  0.2000E-02
    -19.390  0.0000E+00  0.2000E-02
    -19.284  0.0000E+00  0.2000E-02
    -19.177  0.0000E+00  0.2000E-02
    -19.070  0.0000E+00  0.2000E-02
    -18.963  0.0000E+00  0.2000E-02
    -18.856  0.0000E+00  0.2000E-02
    -18.749  0.0000E+00  0.2000E-02
    -18.642  0.8430E-10  0.2000E-02
    -18.535  0.6024E-04  0.2006E-02
    -18.428  0.1149E-01  0.3235E-02
    -18.321  0.7140E-02  0.3999E-02
    -18.214  0.8313E-05  0.4000E-02
    -18.107  0.2048E-11  0.4000E-02
    -18.000  0.0000E+00  0.4000E-02
    -17.893  0.0000E+00  0.4000E-02
    -17.786  0.0000E+00  0.4000E-02
    -17.679  0.0000E+00  0.4000E-02
    -17.572  0.0000E+00  0.4000E-02
    -17.465  0.0000E+00  0.4000E-02
    -17.359  0.0000E+00  0.4000E-02
    -17.252  0.0000E+00  0.4000E-02
    -17.145  0.0000E+00  0.4000E-02
    -17.038  0.0000E+00  0.4000E-02
    -16.931  0.0000E+00  0.4000E-02
    -16.824  0.0000E+00  0.4000E-02
    -16.717  0.0000E+00  0.4000E-02
    -16.610  0.0000E+00  0.4000E-02
    -16.503  0.0000E+00  0.4000E-02
    -16.396  0.0000E+00  0.4000E-02
    -16.289  0.0000E+00  0.4000E-02
    -16.182  0.0000E+00  0.4000E-02
    -16.075  0.0000E+00  0.4000E-02
    -15.968  0.0000E+00  0.4000E-02
    -15.861  0.0000E+00  0.4000E-02
    -15.754  0.0000E+00  0.4000E-02
    -15.647  0.0000E+00  0.4000E-02
    -15.541  0.0000E+00  0.4000E-02
    -15.434  0.0000E+00  0.4000E-02
    -15.327  0.0000E+00  0.4000E-02
    -15.220  0.0000E+00  0.4000E-02
    -15.113  0.0000E+00  0.4000E-02
    -15.006  0.0000E+00  0.4000E-02
    -14.899  0.0000E+00  0.4000E-02
    -14.792  0.0000E+00  0.4000E-02
    -14.685  0.0000E+00  0.4000E-02
    -14.578  0.0000E+00  0.4000E-02
    -14.471  0.0000E+00  0.4000E-02
    -14.364  0.0000E+00  0.4000E-02
    -14.257  0.0000E+00  0.4000E-02
    -14.150  0.0000E+00  0.4000E-02
    -14.043  0.0000E+00  0.4000E-02
    -13.936  0.0000E+00  0.4000E-02
    -13.829  0.0000E+00  0.4000E-02
    -13.722  0.0000E+00  0.4000E-02
    -13.616  0.0000E+00  0.4000E-02
    -13.509  0.0000E+00  0.4000E-02
    -13.402  0.0000E+00  0.4000E-02
    -13.295  0.0000E+00  0.4000E-02
    -13.188  0.0000E+00  0.4000E-02
    -13.081  0.0000E+00  0.4000E-02
    -12.974  0.0000E+00  0.4000E-02
    -12.867  0.0000E+00  0.4000E-02
    -12.760  0.0000E+00  0.4000E-02
    -12.653  0.0000E+00  0.4000E-02
    -12.546  0.0000E+00  0.4000E-02
    -12.439  0.0000E+00  0.4000E-02
    -12.332  0.0000E+00  0.4000E-02
    -12.225  0.6336E-11  0.4000E-02
    -12.118  0.7957E-05  0.4001E-02
    -12.011  0.5882E-02  0.4630E-02
    -11.904  0.1266E-01  0.5984E-02
    -11.798  0.1527E-03  0.6000E-02
    -11.691  0.1064E-04  0.6001E-02
    -11.584  0.2012E-02  0.6216E-02
    -11.477  0.8477E-02  0.7123E-02
    -11.370  0.6597E-02  0.7828E-02
    -11.263  0.3084E-02  0.8158E-02
    -11.156  0.1500E-01  0.9762E-02
    -11.049  0.1830E-01  0.1172E-01
    -10.942  0.2616E-02  0.1200E-01
    -10.835  0.3604E-05  0.1200E-01
    -10.728  0.2207E-11  0.1200E-01
    -10.621  0.0000E+00  0.1200E-01
    -10.514  0.0000E+00  0.1200E-01
    -10.407  0.0000E+00  0.1200E-01
    -10.300  0.0000E+00  0.1200E-01
    -10.193  0.9733E-19  0.1200E-01
    -10.086  0.1874E-09  0.1200E-01
     -9.979  0.6747E-04  0.1201E-01
     -9.873  0.1119E-01  0.1320E-01
     -9.766  0.7428E-02  0.1400E-01
     -9.659  0.1152E-04  0.1400E-01
     -9.552  0.4603E-11  0.1400E-01
     -9.445  0.0000E+00  0.1400E-01
     -9.338  0.2988E-10  0.1400E-01
     -9.231  0.3481E-04  0.1400E-01
     -9.124  0.1021E-01  0.1510E-01
     -9.017  0.8441E-02  0.1600E-01
     -8.910  0.1572E-04  0.1600E-01
     -8.803  0.6666E-11  0.1600E-01
     -8.696  0.0000E+00  0.1600E-01
     -8.589  0.0000E+00  0.1600E-01
     -8.482  0.0000E+00  0.1600E-01
     -8.375  0.0000E+00  0.1600E-01
     -8.268  0.0000E+00  0.1600E-01
     -8.161  0.0000E+00  0.1600E-01
     -8.055  0.0000E+00  0.1600E-01
     -7.948  0.0000E+00  0.1600E-01
     -7.841  0.0000E+00  0.1600E-01
     -7.734  0.0000E+00  0.1600E-01
     -7.627  0.2188E-13  0.1600E-01
     -7.520  0.3073E-06  0.1600E-01
     -7.413  0.1875E-02  0.1620E-01
     -7.306  0.1583E-01  0.1789E-01
     -7.199  0.9941E-03  0.1800E-01
     -7.092  0.5689E-07  0.1800E-01
     -6.985  0.8992E-15  0.1800E-01
     -6.878  0.0000E+00  0.1800E-01
     -6.771  0.0000E+00  0.1800E-01
     -6.664  0.0000E+00  0.1800E-01
     -6.557  0.1007E-10  0.1800E-01
     -6.450  0.2604E-05  0.1800E-01
     -6.343  0.2148E-03  0.1802E-01
     -6.237  0.8938E-04  0.1803E-01
     -6.130  0.1268E-02  0.1817E-01
     -6.023  0.5425E-03  0.1823E-01
     -5.916  0.3085E-02  0.1856E-01
     -5.809  0.1381E-01  0.2003E-01
     -5.702  0.7235E-02  0.2081E-01
     -5.595  0.4391E-02  0.2128E-01
     -5.488  0.5406E-03  0.2133E-01
     -5.381  0.3111E-02  0.2167E-01
     -5.274  0.5605E-02  0.2227E-01
     -5.167  0.1424E-01  0.2379E-01
     -5.060  0.1633E-02  0.2396E-01
     -4.953  0.4636E-04  0.2397E-01
     -4.846  0.7219E-04  0.2398E-01
     -4.739  0.2172E-03  0.2400E-01
     -4.632  0.2807E-05  0.2400E-01
     -4.525  0.1175E-10  0.2400E-01
     -4.418  0.0000E+00  0.2400E-01
     -4.312  0.0000E+00  0.2400E-01
     -4.205  0.0000E+00  0.2400E-01
     -4.098  0.0000E+00  0.2400E-01
     -3.991  0.0000E+00  0.2400E-01
     -3.884  0.0000E+00  0.2400E-01
     -3.777  0.0000E+00  0.2400E-01
     -3.670  0.0000E+00  0.2400E-01
     -3.563  0.0000E+00  0.2400E-01
     -3.456  0.0000E+00  0.2400E-01
     -3.349  0.0000E+00  0.2400E-01
     -3.242  0.0000E+00  0.2400E-01
     -3.135  0.0000E+00  0.2400E-01
     -3.028  0.1411E-16  0.2400E-01
     -2.921  0.1438E-08  0.2400E-01
     -2.814  0.2385E-04  0.2400E-01
     -2.707  0.4852E-03  0.2405E-01
     -2.600  0.1773E-02  0.2424E-01
     -2.494  0.6151E-02  0.2490E-01
     -2.387  0.4770E-02  0.2541E-01
     -2.280  0.5561E-03  0.2547E-01
     -2.173  0.1394E-02  0.2562E-01
     -2.066  0.2446E-02  0.2588E-01
     -1.959  0.8114E-02  0.2675E-01
     -1.852  0.1567E-01  0.2843E-01
     -1.745  0.6813E-02  0.2915E-01
     -1.638  0.3774E-02  0.2956E-01
     -1.531  0.2880E-02  0.2987E-01
     -1.424  0.2847E-02  0.3017E-01
     -1.317  0.5900E-02  0.3080E-01
     -1.210  0.6283E-02  0.3147E-01
     -1.103  0.7636E-02  0.3229E-01
     -0.996  0.4781E-02  0.3280E-01
     -0.889  0.8243E-02  0.3368E-01
     -0.782  0.1112E-01  0.3487E-01
     -0.675  0.7849E-02  0.3571E-01
     -0.569  0.1118E-01  0.3691E-01
     -0.462  0.9986E-02  0.3797E-01
     -0.355  0.1191E-01  0.3925E-01
     -0.248  0.9916E-02  0.4031E-01
     -0.141  0.1112E-01  0.4150E-01
     -0.034  0.5902E-02  0.4213E-01
      0.073  0.4867E-02  0.4265E-01
      0.180  0.1985E-02  0.4286E-01
      0.287  0.1794E-02  0.4305E-01
      0.394  0.1846E-02  0.4325E-01
      0.501  0.2456E-02  0.4351E-01
      0.608  0.1138E-02  0.4364E-01
      0.715  0.7759E-03  0.4372E-01
      0.822  0.5582E-03  0.4378E-01
      0.929  0.6523E-03  0.4385E-01
      1.036  0.1019E-02  0.4396E-01
      1.143  0.1061E-03  0.4397E-01
      1.249  0.2885E-07  0.4397E-01
      1.356  0.6259E-04  0.4398E-01
      1.463  0.2259E-03  0.4400E-01
      1.570  0.3732E-05  0.4400E-01
      1.677  0.2129E-10  0.4400E-01
      1.784  0.0000E+00  0.4400E-01
      1.891  0.0000E+00  0.4400E-01
      1.998  0.0000E+00  0.4400E-01
      2.105  0.0000E+00  0.4400E-01
      2.212  0.0000E+00  0.4400E-01
      2.319  0.0000E+00  0.4400E-01
      2.426  0.1784E-17  0.4400E-01
      2.533  0.4016E-09  0.4400E-01
      2.640  0.1404E-04  0.4400E-01
      2.747  0.2540E-03  0.4403E-01
      2.854  0.5315E-03  0.4409E-01
      2.961  0.1549E-02  0.4425E-01
      3.068  0.2644E-02  0.4453E-01
      3.174  0.3727E-02  0.4493E-01
      3.281  0.3166E-02  0.4527E-01
      3.388  0.1646E-02  0.4545E-01
      3.495  0.4691E-03  0.4550E-01
      3.602  0.2595E-04  0.4550E-01
      3.709  0.1622E-08  0.4550E-01
      3.816  0.1538E-12  0.4550E-01
      3.923  0.4518E-06  0.4550E-01
      4.030  0.3984E-03  0.4554E-01
      4.137  0.5466E-02  0.4613E-01
      4.244  0.1047E-01  0.4725E-01
      4.351  0.5306E-02  0.4781E-01
      4.458  0.5557E-02  0.4841E-01
      4.565  0.5398E-02  0.4899E-01
      4.672  0.5676E-02  0.4959E-01
      4.779  0.4979E-02  0.5012E-01
      4.886  0.1800E-02  0.5032E-01
      4.992  0.1475E-02  0.5048E-01
      5.099  0.2332E-03  0.5050E-01
      5.206  0.1585E-03  0.5052E-01
      5.313  0.3691E-03  0.5056E-01
      5.420  0.6976E-03  0.5063E-01
      5.527  0.1492E-02  0.5079E-01
      5.634  0.2769E-02  0.5109E-01
      5.741  0.3312E-02  0.5144E-01
      5.848  0.4141E-02  0.5188E-01
      5.955  0.2582E-02  0.5216E-01
      6.062  0.3207E-02  0.5250E-01
      6.169  0.5455E-02  0.5309E-01
      6.276  0.3704E-02  0.5348E-01
      6.383  0.2047E-02  0.5370E-01
      6.490  0.3036E-02  0.5403E-01
      6.597  0.5655E-02  0.5463E-01
      6.704  0.7234E-02  0.5540E-01
      6.811  0.7482E-02  0.5620E-01
      6.917  0.6335E-02  0.5688E-01
      7.024  0.5986E-02  0.5752E-01
      7.131  0.2264E-02  0.5776E-01
      7.238  0.6457E-02  0.5845E-01
      7.345  0.5724E-02  0.5907E-01
      7.452  0.5997E-02  0.5971E-01
      7.559  0.7731E-02  0.6054E-01
      7.666  0.8189E-02  0.6141E-01
      7.773  0.4646E-02  0.6191E-01
      7.880  0.4340E-02  0.6237E-01
      7.987  0.5192E-02  0.6293E-01
      8.094  0.5538E-02  0.6352E-01
      8.201  0.3214E-02  0.6386E-01
      8.308  0.7741E-03  0.6395E-01
      8.415  0.4909E-03  0.6400E-01
      8.522  0.1585E-04  0.6400E-01
      8.629  0.2172E-09  0.6400E-01
      8.735  0.4542E-18  0.6400E-01
      8.842  0.0000E+00  0.6400E-01
      8.949  0.0000E+00  0.6400E-01
      9.056  0.0000E+00  0.6400E-01
      9.163  0.0000E+00  0.6400E-01
      9.270  0.0000E+00  0.6400E-01
      9.377  0.0000E+00  0.6400E-01
      9.484  0.0000E+00  0.6400E-01
      9.591  0.0000E+00  0.6400E-01
      9.698  0.0000E+00  0.6400E-01
      9.805  0.0000E+00  0.6400E-01
