       N       E                     dE             d eps       ncg     rms          ort
DAV:   1     0.172337171224E+03    0.17234E+03   -0.22895E+04  1152   0.152E+03
DAV:   2    -0.128457042842E+03   -0.30079E+03   -0.29042E+03  1152   0.234E+02
DAV:   3    -0.160496089129E+03   -0.32039E+02   -0.31833E+02  1152   0.851E+01
DAV:   4    -0.161121982043E+03   -0.62589E+00   -0.62476E+00  1152   0.131E+01
DAV:   5    -0.161136792601E+03   -0.14811E-01   -0.14809E-01  1152   0.197E+00
SDA:   6    -0.144963845323E+03    0.16173E+02   -0.14809E-01  1152   0.164E+02 0.000E+00
CGA:   7    -0.147749160646E+03   -0.27853E+01   -0.27995E+01  1152   0.118E+01 0.279E+00
CGA:   8    -0.148123417206E+03   -0.37426E+00   -0.37290E+00  1152   0.380E+00 0.768E-02
CGA:   9    -0.148241242963E+03   -0.11783E+00   -0.11779E+00  1152   0.119E+00 0.446E-03
CGA:  10    -0.148277851026E+03   -0.36608E-01   -0.36611E-01  1152   0.325E-01-0.452E-04
CGA:  11    -0.148289401146E+03   -0.11550E-01   -0.11563E-01  1152   0.892E-02-0.100E-03
CGA:  12    -0.148292220149E+03   -0.28190E-02   -0.28204E-02  1152   0.176E-02-0.117E-04
CGA:  13    -0.148292851638E+03   -0.63149E-03   -0.63274E-03  1152   0.413E-03-0.908E-05
CGA:  14    -0.148292999419E+03   -0.14778E-03   -0.14794E-03  1152   0.872E-04-0.124E-05
CGA:  15    -0.148293032864E+03   -0.33445E-04   -0.33204E-04  1152   0.206E-04 0.169E-05
CGA:  16    -0.148293041507E+03   -0.86428E-05   -0.86088E-05  1152   0.508E-05 0.205E-06
CGA:  17    -0.148293043634E+03   -0.21268E-05   -0.21199E-05  1152   0.111E-05 0.425E-07
   1 F= -.14829304E+03 E0= -.14829304E+03  d E =-.148293E+03
       N       E                     dE             d eps       ncg     rms          ort
SDA:   1    -0.148244250974E+03    0.48791E-01    0.00000E+00  1152   0.166E+00 0.000E+00
CGA:   2    -0.148293117186E+03   -0.48866E-01   -0.48873E-01  1152   0.268E-01-0.318E-03
CGA:   3    -0.148301400400E+03   -0.82832E-02   -0.82826E-02  1152   0.621E-02 0.179E-04
CGA:   4    -0.148303142726E+03   -0.17423E-02   -0.17420E-02  1152   0.148E-02 0.344E-04
CGA:   5    -0.148303621425E+03   -0.47870E-03   -0.47824E-03  1152   0.471E-03 0.923E-05
CGA:   6    -0.148303785758E+03   -0.16433E-03   -0.16399E-03  1152   0.132E-03 0.473E-05
CGA:   7    -0.148303830772E+03   -0.45014E-04   -0.44762E-04  1152   0.314E-04 0.440E-05
CGA:   8    -0.148303841912E+03   -0.11140E-04   -0.11078E-04  1152   0.652E-05 0.101E-05
CGA:   9    -0.148303844491E+03   -0.25786E-05   -0.26201E-05  1152   0.171E-05-0.389E-06
   2 F= -.14830384E+03 E0= -.14830384E+03  d E =-.108009E-01
       N       E                     dE             d eps       ncg     rms          ort
SDA:   1    -0.148303741747E+03    0.10016E-03    0.00000E+00  1152   0.327E-03 0.000E+00
CGA:   2    -0.148303843569E+03   -0.10182E-03   -0.10218E-03  1152   0.612E-04-0.197E-04
CGA:   3    -0.148303859892E+03   -0.16323E-04   -0.16340E-04  1152   0.128E-04 0.161E-05
CGA:   4    -0.148303862938E+03   -0.30457E-05   -0.31362E-05  1152   0.273E-05 0.166E-05
CGA:   5    -0.148303863823E+03   -0.88506E-06   -0.88690E-06  1152   0.847E-06 0.460E-06
CGA:   6    -0.148303864180E+03   -0.35688E-06   -0.34891E-06  1152   0.278E-06 0.128E-06
CGA:   7    -0.148303864243E+03   -0.63459E-07   -0.71843E-07  1152   0.791E-07 0.121E-06
CGA:   8    -0.148303864254E+03   -0.11084E-07   -0.18624E-07  1152   0.319E-07 0.598E-07
   3 F= -.14830386E+03 E0= -.14830386E+03  d E =-.108206E-01
       N       E                     dE             d eps       ncg     rms          ort
SDA:   1    -0.148268103561E+03    0.35761E-01    0.00000E+00  1152   0.118E+00 0.000E+00
CGA:   2    -0.148301382050E+03   -0.33278E-01   -0.33279E-01  1152   0.274E-01-0.671E-04
CGA:   3    -0.148309226858E+03   -0.78448E-02   -0.78449E-02  1152   0.592E-02-0.132E-04
CGA:   4    -0.148310787859E+03   -0.15610E-02   -0.15615E-02  1152   0.108E-02 0.218E-04
CGA:   5    -0.148311096970E+03   -0.30911E-03   -0.30909E-03  1152   0.272E-03 0.103E-04
CGA:   6    -0.148311189104E+03   -0.92133E-04   -0.92126E-04  1152   0.802E-04 0.151E-06
CGA:   7    -0.148311219914E+03   -0.30810E-04   -0.30784E-04  1152   0.242E-04 0.269E-06
CGA:   8    -0.148311228708E+03   -0.87942E-05   -0.87241E-05  1152   0.539E-05 0.104E-05
CGA:   9    -0.148311230770E+03   -0.20613E-05   -0.20658E-05  1152   0.120E-05-0.587E-07
   4 F= -.14831123E+03 E0= -.14831123E+03  d E =-.736652E-02
       N       E                     dE             d eps       ncg     rms          ort
SDA:   1    -0.148228142811E+03    0.83086E-01    0.00000E+00  1152   0.238E+00 0.000E+00
CGA:   2    -0.148295165314E+03   -0.67023E-01   -0.67029E-01  1152   0.553E-01 0.195E-04
CGA:   3    -0.148311025094E+03   -0.15860E-01   -0.15859E-01  1152   0.120E-01-0.294E-04
CGA:   4    -0.148314190046E+03   -0.31650E-02   -0.31662E-02  1152   0.220E-02 0.296E-04
CGA:   5    -0.148314818977E+03   -0.62893E-03   -0.62914E-03  1152   0.557E-03 0.140E-04
CGA:   6    -0.148315006264E+03   -0.18729E-03   -0.18728E-03  1152   0.163E-03 0.261E-06
CGA:   7    -0.148315068990E+03   -0.62727E-04   -0.62698E-04  1152   0.497E-04 0.351E-06
CGA:   8    -0.148315087153E+03   -0.18163E-04   -0.18078E-04  1152   0.113E-04 0.146E-05
CGA:   9    -0.148315091358E+03   -0.42042E-05   -0.42087E-05  1152   0.243E-05-0.800E-07
   5 F= -.14831509E+03 E0= -.14831509E+03  d E =-.112271E-01
       N       E                     dE             d eps       ncg     rms          ort
SDA:   1    -0.148312938801E+03    0.21484E-02    0.00000E+00  1152   0.171E-01 0.000E+00
CGA:   2    -0.148317639842E+03   -0.47010E-02   -0.46996E-02  1152   0.320E-02-0.410E-04
CGA:   3    -0.148318555814E+03   -0.91597E-03   -0.91598E-03  1152   0.707E-03 0.839E-06
CGA:   4    -0.148318746112E+03   -0.19030E-03   -0.19055E-03  1152   0.143E-03 0.587E-05
CGA:   5    -0.148318787362E+03   -0.41250E-04   -0.41324E-04  1152   0.388E-04 0.329E-05
CGA:   6    -0.148318800643E+03   -0.13281E-04   -0.13271E-04  1152   0.117E-04 0.369E-06
CGA:   7    -0.148318804997E+03   -0.43541E-05   -0.43366E-05  1152   0.329E-05 0.304E-06
CGA:   8    -0.148318806138E+03   -0.11413E-05   -0.11338E-05  1152   0.717E-06 0.327E-06
   6 F= -.14831881E+03 E0= -.14831881E+03  d E =-.371478E-02
       N       E                     dE             d eps       ncg     rms          ort
SDA:   1    -0.148273603319E+03    0.45202E-01    0.00000E+00  1152   0.154E+00 0.000E+00
CGA:   2    -0.148315863275E+03   -0.42260E-01   -0.42264E-01  1152   0.288E-01-0.517E-04
CGA:   3    -0.148324146085E+03   -0.82828E-02   -0.82822E-02  1152   0.638E-02-0.688E-05
CGA:   4    -0.148325878158E+03   -0.17321E-02   -0.17329E-02  1152   0.128E-02 0.178E-04
CGA:   5    -0.148326255160E+03   -0.37700E-03   -0.37719E-03  1152   0.356E-03 0.101E-04
CGA:   6    -0.148326373833E+03   -0.11867E-03   -0.11865E-03  1152   0.106E-03 0.102E-05
CGA:   7    -0.148326413031E+03   -0.39198E-04   -0.39151E-04  1152   0.304E-04 0.821E-06
CGA:   8    -0.148326423937E+03   -0.10906E-04   -0.10866E-04  1152   0.686E-05 0.100E-05
CGA:   9    -0.148326426532E+03   -0.25946E-05   -0.26037E-05  1152   0.158E-05-0.178E-06
   7 F= -.14832643E+03 E0= -.14832643E+03  d E =-.113352E-01
       N       E                     dE             d eps       ncg     rms          ort
SDA:   1    -0.148114199406E+03    0.21222E+00    0.00000E+00  1152   0.619E+00 0.000E+00
CGA:   2    -0.148283051049E+03   -0.16885E+00   -0.16893E+00  1152   0.116E+00 0.354E-03
CGA:   3    -0.148316333827E+03   -0.33283E-01   -0.33277E-01  1152   0.258E-01-0.608E-04
CGA:   4    -0.148323306880E+03   -0.69731E-02   -0.69754E-02  1152   0.521E-02 0.390E-04
CGA:   5    -0.148324831528E+03   -0.15246E-02   -0.15252E-02  1152   0.144E-02 0.209E-04
CGA:   6    -0.148325309404E+03   -0.47788E-03   -0.47785E-03  1152   0.427E-03 0.226E-05
CGA:   7    -0.148325467501E+03   -0.15810E-03   -0.15802E-03  1152   0.124E-03 0.147E-05
CGA:   8    -0.148325512320E+03   -0.44819E-04   -0.44737E-04  1152   0.286E-04 0.199E-05
CGA:   9    -0.148325522747E+03   -0.10427E-04   -0.10441E-04  1152   0.626E-05-0.356E-06
CGA:  10    -0.148325525141E+03   -0.23940E-05   -0.24241E-05  1152   0.150E-05-0.436E-06
   8 F= -.14832553E+03 E0= -.14832553E+03  d E =-.104338E-01
       N       E                     dE             d eps       ncg     rms          ort
SDA:   1    -0.148266034175E+03    0.59489E-01    0.00000E+00  1152   0.184E+00 0.000E+00
CGA:   2    -0.148316030653E+03   -0.49996E-01   -0.49988E-01  1152   0.347E-01 0.508E-04
CGA:   3    -0.148325946700E+03   -0.99160E-02   -0.99169E-02  1152   0.771E-02 0.122E-05
CGA:   4    -0.148328054325E+03   -0.21076E-02   -0.21064E-02  1152   0.157E-02-0.212E-04
CGA:   5    -0.148328517635E+03   -0.46331E-03   -0.46304E-03  1152   0.444E-03-0.101E-04
CGA:   6    -0.148328662076E+03   -0.14444E-03   -0.14445E-03  1152   0.128E-03-0.689E-06
CGA:   7    -0.148328709748E+03   -0.47672E-04   -0.47726E-04  1152   0.374E-04-0.106E-05
CGA:   8    -0.148328723546E+03   -0.13798E-04   -0.13853E-04  1152   0.909E-05-0.110E-05
CGA:   9    -0.148328726497E+03   -0.29510E-05   -0.29488E-05  1152   0.172E-05 0.284E-06
   9 F= -.14832873E+03 E0= -.14832873E+03  d E =-.136351E-01
       N       E                     dE             d eps       ncg     rms          ort
SDA:   1    -0.148326712611E+03    0.20109E-02    0.00000E+00  1152   0.108E-01 0.000E+00
CGA:   2    -0.148329878105E+03   -0.31655E-02   -0.31649E-02  1152   0.200E-02-0.191E-04
CGA:   3    -0.148330502132E+03   -0.62403E-03   -0.62400E-03  1152   0.399E-03-0.218E-05
CGA:   4    -0.148330609488E+03   -0.10736E-03   -0.10745E-03  1152   0.821E-04 0.159E-05
CGA:   5    -0.148330633908E+03   -0.24419E-04   -0.24441E-04  1152   0.215E-04 0.850E-06
CGA:   6    -0.148330641604E+03   -0.76960E-05   -0.77038E-05  1152   0.691E-05-0.227E-06
CGA:   7    -0.148330644095E+03   -0.24908E-05   -0.24861E-05  1152   0.204E-05 0.114E-06
CGA:   8    -0.148330644803E+03   -0.70808E-06   -0.70579E-06  1152   0.435E-06 0.145E-06
  10 F= -.14833064E+03 E0= -.14833064E+03  d E =-.191831E-02
       N       E                     dE             d eps       ncg     rms          ort
SDA:   1    -0.148298779494E+03    0.31865E-01    0.00000E+00  1152   0.976E-01 0.000E+00
CGA:   2    -0.148327243679E+03   -0.28464E-01   -0.28465E-01  1152   0.180E-01-0.301E-04
CGA:   3    -0.148332857413E+03   -0.56137E-02   -0.56135E-02  1152   0.358E-02-0.101E-04
CGA:   4    -0.148333825369E+03   -0.96796E-03   -0.96826E-03  1152   0.741E-03 0.488E-05
CGA:   5    -0.148334045769E+03   -0.22040E-03   -0.22047E-03  1152   0.197E-03 0.263E-05
CGA:   6    -0.148334115096E+03   -0.69327E-04   -0.69345E-04  1152   0.622E-04-0.625E-06
CGA:   7    -0.148334138066E+03   -0.22970E-04   -0.22954E-04  1152   0.190E-04 0.342E-06
CGA:   8    -0.148334144847E+03   -0.67802E-05   -0.67669E-05  1152   0.420E-05 0.476E-06
CGA:   9    -0.148334146432E+03   -0.15859E-05   -0.15870E-05  1152   0.943E-06-0.302E-07
  11 F= -.14833415E+03 E0= -.14833415E+03  d E =-.541994E-02
       N       E                     dE             d eps       ncg     rms          ort
SDA:   1    -0.148189444538E+03    0.14470E+00    0.00000E+00  1152   0.391E+00 0.000E+00
CGA:   2    -0.148303409594E+03   -0.11397E+00   -0.11399E+00  1152   0.720E-01 0.112E-03
CGA:   3    -0.148325924138E+03   -0.22515E-01   -0.22513E-01  1152   0.144E-01-0.370E-04
CGA:   4    -0.148329801168E+03   -0.38770E-02   -0.38780E-02  1152   0.300E-02 0.114E-04
CGA:   5    -0.148330691074E+03   -0.88991E-03   -0.89007E-03  1152   0.795E-03 0.573E-05
CGA:   6    -0.148330970514E+03   -0.27944E-03   -0.27947E-03  1152   0.250E-03-0.101E-05
CGA:   7    -0.148331063234E+03   -0.92720E-04   -0.92689E-04  1152   0.772E-04 0.669E-06
CGA:   8    -0.148331090901E+03   -0.27667E-04   -0.27636E-04  1152   0.173E-04 0.105E-05
CGA:   9    -0.148331097275E+03   -0.63739E-05   -0.63760E-05  1152   0.376E-05-0.557E-07
CGA:  10    -0.148331098694E+03   -0.14197E-05   -0.14241E-05  1152   0.884E-06-0.929E-07
  12 F= -.14833110E+03 E0= -.14833110E+03  d E =-.237220E-02
       N       E                     dE             d eps       ncg     rms          ort
SDA:   1    -0.148259646441E+03    0.71451E-01    0.00000E+00  1152   0.207E+00 0.000E+00
CGA:   2    -0.148319947321E+03   -0.60301E-01   -0.60295E-01  1152   0.384E-01 0.764E-05
CGA:   3    -0.148331866521E+03   -0.11919E-01   -0.11920E-01  1152   0.767E-02 0.120E-04
CGA:   4    -0.148333946788E+03   -0.20803E-02   -0.20796E-02  1152   0.159E-02-0.833E-05
CGA:   5    -0.148334419089E+03   -0.47230E-03   -0.47220E-03  1152   0.424E-03-0.323E-05
CGA:   6    -0.148334564854E+03   -0.14576E-03   -0.14575E-03  1152   0.131E-03 0.998E-06
CGA:   7    -0.148334613866E+03   -0.49012E-04   -0.49039E-04  1152   0.408E-04-0.575E-06
CGA:   8    -0.148334628792E+03   -0.14927E-04   -0.14951E-04  1152   0.950E-05-0.668E-06
CGA:   9    -0.148334632084E+03   -0.32922E-05   -0.32903E-05  1152   0.192E-05 0.104E-06
  13 F= -.14833463E+03 E0= -.14833463E+03  d E =-.590559E-02
       N       E                     dE             d eps       ncg     rms          ort
SDA:   1    -0.148331069645E+03    0.35591E-02    0.00000E+00  1152   0.156E-01 0.000E+00
CGA:   2    -0.148335627563E+03   -0.45579E-02   -0.45578E-02  1152   0.273E-02-0.510E-05
CGA:   3    -0.148336469523E+03   -0.84196E-03   -0.84186E-03  1152   0.529E-03-0.407E-05
CGA:   4    -0.148336608790E+03   -0.13927E-03   -0.13937E-03  1152   0.108E-03 0.153E-05
CGA:   5    -0.148336640018E+03   -0.31228E-04   -0.31252E-04  1152   0.260E-04 0.591E-06
CGA:   6    -0.148336649213E+03   -0.91942E-05   -0.92007E-05  1152   0.793E-05-0.256E-06
CGA:   7    -0.148336652092E+03   -0.28794E-05   -0.28778E-05  1152   0.247E-05 0.427E-07
CGA:   8    -0.148336652943E+03   -0.85150E-06   -0.84996E-06  1152   0.537E-06 0.122E-06
  14 F= -.14833665E+03 E0= -.14833665E+03  d E =-.202086E-02
       N       E                     dE             d eps       ncg     rms          ort
SDA:   1    -0.148290148935E+03    0.46503E-01    0.00000E+00  1152   0.140E+00 0.000E+00
CGA:   2    -0.148331191752E+03   -0.41043E-01   -0.41045E-01  1152   0.245E-01 0.909E-05
CGA:   3    -0.148338770740E+03   -0.75790E-02   -0.75786E-02  1152   0.473E-02-0.149E-04
CGA:   4    -0.148340024339E+03   -0.12536E-02   -0.12539E-02  1152   0.962E-03 0.443E-05
CGA:   5    -0.148340303867E+03   -0.27953E-03   -0.27960E-03  1152   0.233E-03 0.188E-05
CGA:   6    -0.148340385625E+03   -0.81758E-04   -0.81777E-04  1152   0.703E-04-0.748E-06
CGA:   7    -0.148340411560E+03   -0.25935E-04   -0.25930E-04  1152   0.225E-04 0.128E-06
CGA:   8    -0.148340419481E+03   -0.79212E-05   -0.79121E-05  1152   0.507E-05 0.389E-06
CGA:   9    -0.148340421375E+03   -0.18933E-05   -0.18945E-05  1152   0.110E-05-0.306E-07
  15 F= -.14834042E+03 E0= -.14834042E+03  d E =-.578929E-02
       N       E                     dE             d eps       ncg     rms          ort
SDA:   1    -0.148135953311E+03    0.20447E+00    0.00000E+00  1152   0.563E+00 0.000E+00
CGA:   2    -0.148300552170E+03   -0.16460E+00   -0.16462E+00  1152   0.985E-01 0.176E-03
CGA:   3    -0.148331002555E+03   -0.30450E-01   -0.30449E-01  1152   0.190E-01-0.359E-04
CGA:   4    -0.148336025016E+03   -0.50225E-02   -0.50230E-02  1152   0.389E-02 0.834E-05
CGA:   5    -0.148337151430E+03   -0.11264E-02   -0.11266E-02  1152   0.937E-03 0.421E-05
CGA:   6    -0.148337479868E+03   -0.32844E-03   -0.32847E-03  1152   0.282E-03-0.139E-05
CGA:   7    -0.148337584186E+03   -0.10432E-03   -0.10431E-03  1152   0.907E-04 0.200E-06
CGA:   8    -0.148337616373E+03   -0.32187E-04   -0.32166E-04  1152   0.207E-04 0.831E-06
CGA:   9    -0.148337623972E+03   -0.75984E-05   -0.75999E-05  1152   0.438E-05-0.488E-07
CGA:  10    -0.148337625616E+03   -0.16448E-05   -0.16499E-05  1152   0.976E-06-0.111E-06
  16 F= -.14833763E+03 E0= -.14833763E+03  d E =-.299353E-02
       N       E                     dE             d eps       ncg     rms          ort
SDA:   1    -0.148241359515E+03    0.96264E-01    0.00000E+00  1152   0.277E+00 0.000E+00
CGA:   2    -0.148322688371E+03   -0.81329E-01   -0.81323E-01  1152   0.490E-01-0.329E-04
CGA:   3    -0.148337725600E+03   -0.15037E-01   -0.15038E-01  1152   0.947E-02 0.146E-04
CGA:   4    -0.148340241928E+03   -0.25163E-02   -0.25158E-02  1152   0.192E-02-0.714E-05
CGA:   5    -0.148340800415E+03   -0.55849E-03   -0.55841E-03  1152   0.465E-03-0.182E-05
CGA:   6    -0.148340961304E+03   -0.16089E-03   -0.16087E-03  1152   0.138E-03 0.119E-05
CGA:   7    -0.148341012725E+03   -0.51421E-04   -0.51433E-04  1152   0.445E-04-0.274E-06
CGA:   8    -0.148341028802E+03   -0.16077E-04   -0.16092E-04  1152   0.104E-04-0.475E-06
CGA:   9    -0.148341032468E+03   -0.36661E-05   -0.36636E-05  1152   0.209E-05 0.117E-06
  17 F= -.14834103E+03 E0= -.14834103E+03  d E =-.640038E-02
       N       E                     dE             d eps       ncg     rms          ort
SDA:   1    -0.148328182425E+03    0.12846E-01    0.00000E+00  1152   0.413E-01 0.000E+00
CGA:   2    -0.148340365166E+03   -0.12183E-01   -0.12184E-01  1152   0.834E-02 0.296E-04
CGA:   3    -0.148342781930E+03   -0.24168E-02   -0.24165E-02  1152   0.190E-02-0.781E-05
CGA:   4    -0.148343261842E+03   -0.47991E-03   -0.47984E-03  1152   0.363E-03-0.590E-06
CGA:   5    -0.148343370140E+03   -0.10830E-03   -0.10831E-03  1152   0.903E-04 0.613E-06
CGA:   6    -0.148343400911E+03   -0.30772E-04   -0.30773E-04  1152   0.279E-04-0.697E-07
CGA:   7    -0.148343411179E+03   -0.10267E-04   -0.10279E-04  1152   0.874E-05-0.294E-06
CGA:   8    -0.148343414315E+03   -0.31365E-05   -0.31344E-05  1152   0.191E-05 0.693E-07
  18 F= -.14834341E+03 E0= -.14834341E+03  d E =-.238185E-02
       N       E                     dE             d eps       ncg     rms          ort
SDA:   1    -0.148332181348E+03    0.11230E-01    0.00000E+00  1152   0.323E-01 0.000E+00
CGA:   2    -0.148341699924E+03   -0.95186E-02   -0.95195E-02  1152   0.651E-02 0.269E-04
CGA:   3    -0.148343587004E+03   -0.18871E-02   -0.18868E-02  1152   0.147E-02-0.694E-05
CGA:   4    -0.148343960743E+03   -0.37374E-03   -0.37369E-03  1152   0.280E-03-0.503E-06
CGA:   5    -0.148344044374E+03   -0.83631E-04   -0.83645E-04  1152   0.700E-04 0.529E-06
CGA:   6    -0.148344068290E+03   -0.23916E-04   -0.23917E-04  1152   0.218E-04-0.536E-07
CGA:   7    -0.148344076322E+03   -0.80315E-05   -0.80430E-05  1152   0.687E-05-0.258E-06
CGA:   8    -0.148344078778E+03   -0.24564E-05   -0.24541E-05  1152   0.150E-05 0.631E-07
  19 F= -.14834408E+03 E0= -.14834408E+03  d E =-.304631E-02
       N       E                     dE             d eps       ncg     rms          ort
SDA:   1    -0.148337606174E+03    0.64701E-02    0.00000E+00  1152   0.231E-01 0.000E+00
CGA:   2    -0.148344288504E+03   -0.66823E-02   -0.66841E-02  1152   0.423E-02 0.465E-04
CGA:   3    -0.148345520104E+03   -0.12316E-02   -0.12313E-02  1152   0.102E-02-0.895E-05
CGA:   4    -0.148345773104E+03   -0.25300E-03   -0.25273E-03  1152   0.195E-03-0.335E-05
CGA:   5    -0.148345831966E+03   -0.58863E-04   -0.58843E-04  1152   0.493E-04-0.106E-05
CGA:   6    -0.148345848716E+03   -0.16750E-04   -0.16763E-04  1152   0.157E-04-0.638E-06
CGA:   7    -0.148345854350E+03   -0.56344E-05   -0.56579E-05  1152   0.471E-05-0.537E-06
CGA:   8    -0.148345856032E+03   -0.16814E-05   -0.16849E-05  1152   0.102E-05-0.785E-07
  20 F= -.14834586E+03 E0= -.14834586E+03  d E =-.177725E-02
       N       E                     dE             d eps       ncg     rms          ort
SDA:   1    -0.148316435520E+03    0.29419E-01    0.00000E+00  1152   0.863E-01 0.000E+00
CGA:   2    -0.148341355354E+03   -0.24920E-01   -0.24922E-01  1152   0.158E-01 0.833E-04
CGA:   3    -0.148345943208E+03   -0.45879E-02   -0.45874E-02  1152   0.380E-02-0.169E-04
CGA:   4    -0.148346887051E+03   -0.94384E-03   -0.94325E-03  1152   0.726E-03-0.702E-05
CGA:   5    -0.148347106436E+03   -0.21938E-03   -0.21935E-03  1152   0.184E-03-0.199E-05
CGA:   6    -0.148347168618E+03   -0.62182E-04   -0.62207E-04  1152   0.578E-04-0.118E-05
CGA:   7    -0.148347189382E+03   -0.20764E-04   -0.20809E-04  1152   0.170E-04-0.104E-05
CGA:   8    -0.148347195593E+03   -0.62110E-05   -0.62196E-05  1152   0.373E-05-0.171E-06
CGA:   9    -0.148347196900E+03   -0.13071E-05   -0.13052E-05  1152   0.761E-06 0.682E-07
  21 F= -.14834720E+03 E0= -.14834720E+03  d E =-.311812E-02
       N       E                     dE             d eps       ncg     rms          ort
SDA:   1    -0.148344011452E+03    0.31841E-02    0.00000E+00  1152   0.135E-01 0.000E+00
CGA:   2    -0.148347720552E+03   -0.37091E-02   -0.37111E-02  1152   0.233E-02 0.392E-04
CGA:   3    -0.148348372441E+03   -0.65189E-03   -0.65165E-03  1152   0.565E-03-0.540E-05
CGA:   4    -0.148348517613E+03   -0.14517E-03   -0.14494E-03  1152   0.112E-03-0.351E-05
CGA:   5    -0.148348552779E+03   -0.35166E-04   -0.35158E-04  1152   0.316E-04-0.150E-05
CGA:   6    -0.148348563510E+03   -0.10731E-04   -0.10747E-04  1152   0.103E-04-0.639E-06
CGA:   7    -0.148348567228E+03   -0.37176E-05   -0.37418E-05  1152   0.293E-05-0.488E-06
CGA:   8    -0.148348568248E+03   -0.10199E-05   -0.10223E-05  1152   0.608E-06-0.533E-07
  22 F= -.14834857E+03 E0= -.14834857E+03  d E =-.137135E-02
       N       E                     dE             d eps       ncg     rms          ort
SDA:   1    -0.148309912287E+03    0.38655E-01    0.00000E+00  1152   0.122E+00 0.000E+00
CGA:   2    -0.148343408671E+03   -0.33496E-01   -0.33499E-01  1152   0.211E-01 0.973E-04
CGA:   3    -0.148349280360E+03   -0.58717E-02   -0.58713E-02  1152   0.506E-02-0.162E-04
CGA:   4    -0.148350583406E+03   -0.13030E-02   -0.13022E-02  1152   0.999E-03-0.120E-04
CGA:   5    -0.148350897577E+03   -0.31417E-03   -0.31416E-03  1152   0.280E-03-0.441E-05
CGA:   6    -0.148350992858E+03   -0.95281E-04   -0.95327E-04  1152   0.903E-04-0.183E-05
CGA:   7    -0.148351025319E+03   -0.32462E-04   -0.32527E-04  1152   0.247E-04-0.149E-05
CGA:   8    -0.148351034287E+03   -0.89683E-05   -0.89771E-05  1152   0.529E-05-0.183E-06
CGA:   9    -0.148351036105E+03   -0.18174E-05   -0.18130E-05  1152   0.109E-05 0.192E-06
  23 F= -.14835104E+03 E0= -.14835104E+03  d E =-.383920E-02
       N       E                     dE             d eps       ncg     rms          ort
SDA:   1    -0.148341086377E+03    0.99479E-02    0.00000E+00  1152   0.304E-01 0.000E+00
CGA:   2    -0.148349437089E+03   -0.83507E-02   -0.83534E-02  1152   0.524E-02 0.580E-04
CGA:   3    -0.148350902255E+03   -0.14652E-02   -0.14648E-02  1152   0.126E-02-0.813E-05
CGA:   4    -0.148351227654E+03   -0.32540E-03   -0.32504E-03  1152   0.251E-03-0.551E-05
CGA:   5    -0.148351306214E+03   -0.78560E-04   -0.78553E-04  1152   0.702E-04-0.228E-05
CGA:   6    -0.148351330145E+03   -0.23930E-04   -0.23955E-04  1152   0.228E-04-0.946E-06
CGA:   7    -0.148351338368E+03   -0.82235E-05   -0.82582E-05  1152   0.635E-05-0.722E-06
CGA:   8    -0.148351340628E+03   -0.22599E-05   -0.22639E-05  1152   0.134E-05-0.850E-07
  24 F= -.14835134E+03 E0= -.14835134E+03  d E =-.414373E-02
       N       E                     dE             d eps       ncg     rms          ort
SDA:   1    -0.148350791617E+03    0.54675E-03    0.00000E+00  1152   0.354E-02 0.000E+00
CGA:   2    -0.148351752711E+03   -0.96109E-03   -0.96222E-03  1152   0.696E-03 0.217E-04
CGA:   3    -0.148351938094E+03   -0.18538E-03   -0.18528E-03  1152   0.162E-03-0.182E-05
CGA:   4    -0.148351982712E+03   -0.44618E-04   -0.44508E-04  1152   0.329E-04-0.251E-05
CGA:   5    -0.148351992644E+03   -0.99313E-05   -0.99236E-05  1152   0.960E-05-0.705E-06
CGA:   6    -0.148351995716E+03   -0.30721E-05   -0.30725E-05  1152   0.272E-05-0.518E-07
CGA:   7    -0.148351996798E+03   -0.10823E-05   -0.11059E-05  1152   0.881E-06-0.256E-06
CGA:   8    -0.148351997094E+03   -0.29629E-06   -0.30089E-06  1152   0.207E-06-0.838E-07
  25 F= -.14835200E+03 E0= -.14835200E+03  d E =-.656466E-03
       N       E                     dE             d eps       ncg     rms          ort
SDA:   1    -0.148342684729E+03    0.93121E-02    0.00000E+00  1152   0.319E-01 0.000E+00
CGA:   2    -0.148351375458E+03   -0.86907E-02   -0.86933E-02  1152   0.633E-02 0.617E-04
CGA:   3    -0.148353041567E+03   -0.16661E-02   -0.16659E-02  1152   0.146E-02-0.580E-05
CGA:   4    -0.148353440022E+03   -0.39846E-03   -0.39810E-03  1152   0.295E-03-0.807E-05
CGA:   5    -0.148353529088E+03   -0.89066E-04   -0.89044E-04  1152   0.840E-04-0.211E-05
CGA:   6    -0.148353556606E+03   -0.27518E-04   -0.27521E-04  1152   0.241E-04-0.155E-06
CGA:   7    -0.148353565866E+03   -0.92600E-05   -0.93159E-05  1152   0.692E-05-0.765E-06
CGA:   8    -0.148353568333E+03   -0.24673E-05   -0.24814E-05  1152   0.159E-05-0.271E-06
  26 F= -.14835357E+03 E0= -.14835357E+03  d E =-.222771E-02
       N       E                     dE             d eps       ncg     rms          ort
SDA:   1    -0.148311309938E+03    0.42256E-01    0.00000E+00  1152   0.128E+00 0.000E+00
CGA:   2    -0.148346155010E+03   -0.34845E-01   -0.34846E-01  1152   0.254E-01 0.934E-04
CGA:   3    -0.148352822050E+03   -0.66670E-02   -0.66672E-02  1152   0.583E-02-0.101E-04
CGA:   4    -0.148354410954E+03   -0.15889E-02   -0.15881E-02  1152   0.117E-02-0.174E-04
CGA:   5    -0.148354765870E+03   -0.35492E-03   -0.35488E-03  1152   0.333E-03-0.416E-05
CGA:   6    -0.148354875860E+03   -0.10999E-03   -0.10999E-03  1152   0.961E-04-0.250E-06
CGA:   7    -0.148354912489E+03   -0.36629E-04   -0.36738E-04  1152   0.268E-04-0.158E-05
CGA:   8    -0.148354922152E+03   -0.96632E-05   -0.96907E-05  1152   0.611E-05-0.548E-06
CGA:   9    -0.148354924160E+03   -0.20074E-05   -0.20036E-05  1152   0.118E-05 0.259E-06
  27 F= -.14835492E+03 E0= -.14835492E+03  d E =-.358353E-02
       N       E                     dE             d eps       ncg     rms          ort
SDA:   1    -0.148354524347E+03    0.39780E-03    0.00000E+00  1152   0.245E-02 0.000E+00
CGA:   2    -0.148355231719E+03   -0.70737E-03   -0.70799E-03  1152   0.494E-03 0.183E-04
CGA:   3    -0.148355373787E+03   -0.14207E-03   -0.14199E-03  1152   0.114E-03-0.222E-05
CGA:   4    -0.148355403692E+03   -0.29905E-04   -0.29809E-04  1152   0.218E-04-0.172E-05
CGA:   5    -0.148355410256E+03   -0.65638E-05   -0.65584E-05  1152   0.548E-05-0.502E-06
CGA:   6    -0.148355412084E+03   -0.18287E-05   -0.18320E-05  1152   0.172E-05-0.129E-06
CGA:   7    -0.148355412757E+03   -0.67223E-06   -0.69549E-06  1152   0.644E-06-0.239E-06
CGA:   8    -0.148355412960E+03   -0.20357E-06   -0.20628E-06  1152   0.138E-06-0.543E-07
  28 F= -.14835541E+03 E0= -.14835541E+03  d E =-.488801E-03
       N       E                     dE             d eps       ncg     rms          ort
SDA:   1    -0.148348475439E+03    0.69373E-02    0.00000E+00  1152   0.221E-01 0.000E+00
CGA:   2    -0.148354879841E+03   -0.64044E-02   -0.64060E-02  1152   0.451E-02 0.532E-04
CGA:   3    -0.148356157849E+03   -0.12780E-02   -0.12778E-02  1152   0.102E-02-0.679E-05
CGA:   4    -0.148356425817E+03   -0.26797E-03   -0.26765E-03  1152   0.191E-03-0.551E-05
CGA:   5    -0.148356484301E+03   -0.58484E-04   -0.58470E-04  1152   0.475E-04-0.147E-05
CGA:   6    -0.148356500326E+03   -0.16025E-04   -0.16034E-04  1152   0.148E-04-0.359E-06
CGA:   7    -0.148356505896E+03   -0.55706E-05   -0.56136E-05  1152   0.466E-05-0.659E-06
CGA:   8    -0.148356507560E+03   -0.16638E-05   -0.16737E-05  1152   0.103E-05-0.177E-06
  29 F= -.14835651E+03 E0= -.14835651E+03  d E =-.158340E-02
       N       E                     dE             d eps       ncg     rms          ort
SDA:   1    -0.148324849402E+03    0.31656E-01    0.00000E+00  1152   0.885E-01 0.000E+00
CGA:   2    -0.148350518344E+03   -0.25669E-01   -0.25671E-01  1152   0.181E-01 0.899E-04
CGA:   3    -0.148355631465E+03   -0.51131E-02   -0.51129E-02  1152   0.408E-02-0.121E-04
CGA:   4    -0.148356700974E+03   -0.10695E-02   -0.10688E-02  1152   0.761E-03-0.117E-04
CGA:   5    -0.148356934272E+03   -0.23330E-03   -0.23327E-03  1152   0.189E-03-0.285E-05
CGA:   6    -0.148356998313E+03   -0.64041E-04   -0.64056E-04  1152   0.589E-04-0.644E-06
CGA:   7    -0.148357020289E+03   -0.21976E-04   -0.22049E-04  1152   0.179E-04-0.128E-05
CGA:   8    -0.148357026827E+03   -0.65383E-05   -0.65569E-05  1152   0.395E-05-0.348E-06
CGA:   9    -0.148357028180E+03   -0.13531E-05   -0.13499E-05  1152   0.765E-06 0.119E-06
  30 F= -.14835703E+03 E0= -.14835703E+03  d E =-.210402E-02
       N       E                     dE             d eps       ncg     rms          ort
SDA:   1    -0.148354845505E+03    0.21813E-02    0.00000E+00  1152   0.620E-02 0.000E+00
CGA:   2    -0.148356655942E+03   -0.18104E-02   -0.18094E-02  1152   0.128E-02-0.291E-04
CGA:   3    -0.148357012393E+03   -0.35645E-03   -0.35660E-03  1152   0.284E-03 0.348E-05
CGA:   4    -0.148357086087E+03   -0.73694E-04   -0.73876E-04  1152   0.517E-04 0.286E-05
CGA:   5    -0.148357102068E+03   -0.15980E-04   -0.15991E-04  1152   0.126E-04 0.786E-06
CGA:   6    -0.148357106404E+03   -0.43360E-05   -0.43325E-05  1152   0.391E-05 0.192E-06
CGA:   7    -0.148357107774E+03   -0.13709E-05   -0.13638E-05  1152   0.105E-05 0.300E-06
CGA:   8    -0.148357108179E+03   -0.40426E-06   -0.40094E-06  1152   0.239E-06 0.110E-06
  31 F= -.14835711E+03 E0= -.14835711E+03  d E =-.218402E-02
       N       E                     dE             d eps       ncg     rms          ort
SDA:   1    -0.148356669496E+03    0.43828E-03    0.00000E+00  1152   0.194E-02 0.000E+00
CGA:   2    -0.148357233149E+03   -0.56365E-03   -0.56431E-03  1152   0.375E-03 0.178E-04
CGA:   3    -0.148357344346E+03   -0.11120E-03   -0.11116E-03  1152   0.847E-04-0.112E-05
CGA:   4    -0.148357367049E+03   -0.22702E-04   -0.22618E-04  1152   0.167E-04-0.149E-05
CGA:   5    -0.148357372129E+03   -0.50805E-05   -0.50765E-05  1152   0.395E-05-0.341E-06
CGA:   6    -0.148357373508E+03   -0.13790E-05   -0.13835E-05  1152   0.125E-05-0.125E-06
CGA:   7    -0.148357373999E+03   -0.49102E-06   -0.51539E-06  1152   0.523E-06-0.234E-06
CGA:   8    -0.148357374148E+03   -0.14947E-06   -0.15079E-06  1152   0.109E-06-0.472E-07
  32 F= -.14835737E+03 E0= -.14835737E+03  d E =-.265970E-03
       N       E                     dE             d eps       ncg     rms          ort
SDA:   1    -0.148351415472E+03    0.59585E-02    0.00000E+00  1152   0.175E-01 0.000E+00
CGA:   2    -0.148356526089E+03   -0.51106E-02   -0.51123E-02  1152   0.341E-02 0.525E-04
CGA:   3    -0.148357524348E+03   -0.99826E-03   -0.99815E-03  1152   0.758E-03-0.353E-05
CGA:   4    -0.148357726062E+03   -0.20171E-03   -0.20144E-03  1152   0.145E-03-0.464E-05
CGA:   5    -0.148357770842E+03   -0.44781E-04   -0.44771E-04  1152   0.345E-04-0.936E-06
CGA:   6    -0.148357783017E+03   -0.12175E-04   -0.12188E-04  1152   0.108E-04-0.361E-06
CGA:   7    -0.148357787084E+03   -0.40672E-05   -0.41068E-05  1152   0.353E-05-0.621E-06
CGA:   8    -0.148357788293E+03   -0.12087E-05   -0.12148E-05  1152   0.754E-06-0.144E-06
  33 F= -.14835779E+03 E0= -.14835779E+03  d E =-.680114E-03
       N       E                     dE             d eps       ncg     rms          ort
SDA:   1    -0.148357480120E+03    0.30696E-03    0.00000E+00  1152   0.890E-03 0.000E+00
CGA:   2    -0.148357737449E+03   -0.25733E-03   -0.25779E-03  1152   0.170E-03 0.120E-04
CGA:   3    -0.148357788362E+03   -0.50913E-04   -0.50893E-04  1152   0.383E-04-0.660E-06
CGA:   4    -0.148357798793E+03   -0.10430E-04   -0.10379E-04  1152   0.747E-05-0.976E-06
CGA:   5    -0.148357801085E+03   -0.22920E-05   -0.22904E-05  1152   0.183E-05-0.215E-06
CGA:   6    -0.148357801730E+03   -0.64544E-06   -0.64929E-06  1152   0.600E-06-0.908E-07
CGA:   7    -0.148357801968E+03   -0.23762E-06   -0.25960E-06  1152   0.304E-06-0.167E-06
CGA:   8    -0.148357802041E+03   -0.73114E-07   -0.73219E-07  1152   0.644E-07-0.267E-07
  34 F= -.14835780E+03 E0= -.14835780E+03  d E =-.693862E-03
       N       E                     dE             d eps       ncg     rms          ort
SDA:   1    -0.148356636165E+03    0.11658E-02    0.00000E+00  1152   0.445E-02 0.000E+00
CGA:   2    -0.148357939420E+03   -0.13033E-02   -0.13040E-02  1152   0.681E-03 0.221E-04
CGA:   3    -0.148358144928E+03   -0.20551E-03   -0.20545E-03  1152   0.157E-03-0.248E-05
CGA:   4    -0.148358186342E+03   -0.41414E-04   -0.41347E-04  1152   0.348E-04-0.114E-05
CGA:   5    -0.148358197171E+03   -0.10829E-04   -0.10827E-04  1152   0.916E-05-0.340E-06
CGA:   6    -0.148358200515E+03   -0.33437E-05   -0.33563E-05  1152   0.301E-05-0.250E-06
CGA:   7    -0.148358201615E+03   -0.10999E-05   -0.11148E-05  1152   0.902E-06-0.259E-06
CGA:   8    -0.148358201898E+03   -0.28340E-06   -0.28366E-06  1152   0.174E-06-0.201E-07
  35 F= -.14835820E+03 E0= -.14835820E+03  d E =-.399857E-03
       N       E                     dE             d eps       ncg     rms          ort
SDA:   1    -0.148347259320E+03    0.10942E-01    0.00000E+00  1152   0.323E-01 0.000E+00
CGA:   2    -0.148356748653E+03   -0.94893E-02   -0.94909E-02  1152   0.497E-02 0.564E-04
CGA:   3    -0.148358235881E+03   -0.14872E-02   -0.14871E-02  1152   0.114E-02-0.724E-05
CGA:   4    -0.148358535625E+03   -0.29974E-03   -0.29954E-03  1152   0.251E-03-0.332E-05
CGA:   5    -0.148358613946E+03   -0.78321E-04   -0.78315E-04  1152   0.659E-04-0.821E-06
CGA:   6    -0.148358637913E+03   -0.23967E-04   -0.23995E-04  1152   0.212E-04-0.618E-06
CGA:   7    -0.148358645583E+03   -0.76699E-05   -0.77000E-05  1152   0.588E-05-0.687E-06
CGA:   8    -0.148358647590E+03   -0.20069E-05   -0.20090E-05  1152   0.119E-05-0.674E-07
  36 F= -.14835865E+03 E0= -.14835865E+03  d E =-.845549E-03
       N       E                     dE             d eps       ncg     rms          ort
SDA:   1    -0.148357023273E+03    0.16223E-02    0.00000E+00  1152   0.597E-02 0.000E+00
CGA:   2    -0.148358764026E+03   -0.17408E-02   -0.17410E-02  1152   0.880E-03 0.715E-05
CGA:   3    -0.148359036016E+03   -0.27199E-03   -0.27196E-03  1152   0.182E-03-0.202E-05
CGA:   4    -0.148359085820E+03   -0.49803E-04   -0.49779E-04  1152   0.410E-04-0.482E-06
CGA:   5    -0.148359098340E+03   -0.12521E-04   -0.12516E-04  1152   0.107E-04-0.332E-06
CGA:   6    -0.148359102329E+03   -0.39883E-05   -0.40023E-05  1152   0.339E-05-0.253E-06
CGA:   7    -0.148359103545E+03   -0.12161E-05   -0.12184E-05  1152   0.938E-06-0.534E-07
CGA:   8    -0.148359103853E+03   -0.30808E-06   -0.30768E-06  1152   0.187E-06 0.328E-07
  37 F= -.14835910E+03 E0= -.14835910E+03  d E =-.456263E-03
       N       E                     dE             d eps       ncg     rms          ort
SDA:   1    -0.148341614320E+03    0.17489E-01    0.00000E+00  1152   0.537E-01 0.000E+00
CGA:   2    -0.148357287909E+03   -0.15674E-01   -0.15674E-01  1152   0.794E-02 0.169E-04
CGA:   3    -0.148359734954E+03   -0.24470E-02   -0.24469E-02  1152   0.164E-02-0.687E-05
CGA:   4    -0.148360183198E+03   -0.44824E-03   -0.44815E-03  1152   0.373E-03-0.159E-05
CGA:   5    -0.148360296367E+03   -0.11317E-03   -0.11315E-03  1152   0.960E-04-0.898E-06
CGA:   6    -0.148360331881E+03   -0.35514E-04   -0.35550E-04  1152   0.296E-04-0.725E-06
CGA:   7    -0.148360342701E+03   -0.10819E-04   -0.10828E-04  1152   0.825E-05-0.195E-06
CGA:   8    -0.148360345527E+03   -0.28263E-05   -0.28244E-05  1152   0.171E-05 0.104E-06
  38 F= -.14836035E+03 E0= -.14836035E+03  d E =-.169794E-02
       N       E                     dE             d eps       ncg     rms          ort
SDA:   1    -0.148287326569E+03    0.73016E-01    0.00000E+00  1152   0.215E+00 0.000E+00
CGA:   2    -0.148350006543E+03   -0.62680E-01   -0.62676E-01  1152   0.318E-01 0.140E-05
CGA:   3    -0.148359799326E+03   -0.97928E-02   -0.97926E-02  1152   0.657E-02-0.134E-04
CGA:   4    -0.148361593324E+03   -0.17940E-02   -0.17938E-02  1152   0.149E-02-0.360E-05
CGA:   5    -0.148362046452E+03   -0.45313E-03   -0.45310E-03  1152   0.384E-03-0.144E-05
CGA:   6    -0.148362188345E+03   -0.14189E-03   -0.14196E-03  1152   0.118E-03-0.140E-05
CGA:   7    -0.148362231649E+03   -0.43303E-04   -0.43323E-04  1152   0.329E-04-0.451E-06
CGA:   8    -0.148362243047E+03   -0.11398E-04   -0.11394E-04  1152   0.690E-05 0.236E-06
CGA:   9    -0.148362245589E+03   -0.25415E-05   -0.25405E-05  1152   0.146E-05 0.382E-07
  39 F= -.14836225E+03 E0= -.14836225E+03  d E =-.359800E-02
       N       E                     dE             d eps       ncg     rms          ort
SDA:   1    -0.148063986412E+03    0.29826E+00    0.00000E+00  1152   0.859E+00 0.000E+00
CGA:   2    -0.148314396570E+03   -0.25041E+00   -0.25037E+00  1152   0.128E+00-0.223E-03
CGA:   3    -0.148353654850E+03   -0.39258E-01   -0.39259E-01  1152   0.263E-01-0.385E-05
CGA:   4    -0.148360847783E+03   -0.71929E-02   -0.71921E-02  1152   0.602E-02-0.841E-05
CGA:   5    -0.148362675990E+03   -0.18282E-02   -0.18282E-02  1152   0.154E-02-0.123E-05
CGA:   6    -0.148363246655E+03   -0.57067E-03   -0.57077E-03  1152   0.474E-03-0.251E-05
CGA:   7    -0.148363420831E+03   -0.17418E-03   -0.17422E-03  1152   0.132E-03-0.110E-05
CGA:   8    -0.148363466821E+03   -0.45990E-04   -0.45978E-04  1152   0.278E-04 0.582E-06
CGA:   9    -0.148363477032E+03   -0.10211E-04   -0.10207E-04  1152   0.582E-05 0.134E-06
CGA:  10    -0.148363479308E+03   -0.22764E-05   -0.22791E-05  1152   0.133E-05-0.447E-07
  40 F= -.14836348E+03 E0= -.14836348E+03  d E =-.483172E-02
       N       E                     dE             d eps       ncg     rms          ort
SDA:   1    -0.148362981640E+03    0.49539E-03    0.00000E+00  1152   0.216E-02 0.000E+00
CGA:   2    -0.148363609375E+03   -0.62774E-03   -0.62787E-03  1152   0.317E-03 0.306E-05
CGA:   3    -0.148363706993E+03   -0.97618E-04   -0.97591E-04  1152   0.670E-04-0.966E-06
CGA:   4    -0.148363725103E+03   -0.18110E-04   -0.18106E-04  1152   0.149E-04-0.489E-07
CGA:   5    -0.148363729722E+03   -0.46185E-05   -0.46155E-05  1152   0.379E-05-0.149E-06
CGA:   6    -0.148363731152E+03   -0.14303E-05   -0.14355E-05  1152   0.121E-05-0.102E-06
CGA:   7    -0.148363731580E+03   -0.42835E-06   -0.42851E-06  1152   0.323E-06-0.325E-08
CGA:   8    -0.148363731684E+03   -0.10335E-06   -0.10383E-06  1152   0.620E-07 0.243E-07
  41 F= -.14836373E+03 E0= -.14836373E+03  d E =-.252375E-03
       N       E                     dE             d eps       ncg     rms          ort
SDA:   1    -0.148357682464E+03    0.60491E-02    0.00000E+00  1152   0.195E-01 0.000E+00
CGA:   2    -0.148363352162E+03   -0.56697E-02   -0.56699E-02  1152   0.286E-02 0.866E-05
CGA:   3    -0.148364230286E+03   -0.87812E-03   -0.87804E-03  1152   0.601E-03-0.320E-05
CGA:   4    -0.148364393487E+03   -0.16320E-03   -0.16319E-03  1152   0.134E-03-0.203E-06
CGA:   5    -0.148364434596E+03   -0.41109E-04   -0.41100E-04  1152   0.345E-04-0.409E-06
CGA:   6    -0.148364447334E+03   -0.12738E-04   -0.12750E-04  1152   0.107E-04-0.296E-06
CGA:   7    -0.148364451199E+03   -0.38655E-05   -0.38664E-05  1152   0.291E-05-0.280E-07
CGA:   8    -0.148364452192E+03   -0.99298E-06   -0.99249E-06  1152   0.589E-06 0.771E-07
  42 F= -.14836445E+03 E0= -.14836445E+03  d E =-.972884E-03
       N       E                     dE             d eps       ncg     rms          ort
SDA:   1    -0.148338652900E+03    0.25798E-01    0.00000E+00  1152   0.779E-01 0.000E+00
CGA:   2    -0.148361333136E+03   -0.22680E-01   -0.22680E-01  1152   0.115E-01 0.109E-04
CGA:   3    -0.148364846053E+03   -0.35129E-02   -0.35128E-02  1152   0.240E-02-0.665E-05
CGA:   4    -0.148365499100E+03   -0.65305E-03   -0.65300E-03  1152   0.536E-03-0.549E-06
CGA:   5    -0.148365663333E+03   -0.16423E-03   -0.16422E-03  1152   0.138E-03-0.686E-06
CGA:   6    -0.148365714107E+03   -0.50774E-04   -0.50798E-04  1152   0.424E-04-0.570E-06
CGA:   7    -0.148365729572E+03   -0.15465E-04   -0.15468E-04  1152   0.116E-04-0.758E-07
CGA:   8    -0.148365733596E+03   -0.40248E-05   -0.40220E-05  1152   0.239E-05 0.170E-06
  43 F= -.14836573E+03 E0= -.14836573E+03  d E =-.225429E-02
       N       E                     dE             d eps       ncg     rms          ort
SDA:   1    -0.148259288447E+03    0.10644E+00    0.00000E+00  1152   0.312E+00 0.000E+00
CGA:   2    -0.148349973390E+03   -0.90685E-01   -0.90676E-01  1152   0.460E-01-0.299E-04
CGA:   3    -0.148364042022E+03   -0.14069E-01   -0.14069E-01  1152   0.961E-02-0.951E-05
CGA:   4    -0.148366657824E+03   -0.26158E-02   -0.26156E-02  1152   0.215E-02-0.158E-05
CGA:   5    -0.148367316160E+03   -0.65834E-03   -0.65832E-03  1152   0.550E-03-0.786E-06
CGA:   6    -0.148367519204E+03   -0.20304E-03   -0.20309E-03  1152   0.169E-03-0.104E-05
CGA:   7    -0.148367581155E+03   -0.61951E-04   -0.61960E-04  1152   0.465E-04-0.219E-06
CGA:   8    -0.148367597373E+03   -0.16218E-04   -0.16210E-04  1152   0.965E-05 0.390E-06
CGA:   9    -0.148367600948E+03   -0.35746E-05   -0.35741E-05  1152   0.202E-05 0.131E-07
  44 F= -.14836760E+03 E0= -.14836760E+03  d E =-.412164E-02
       N       E                     dE             d eps       ncg     rms          ort
SDA:   1    -0.147935050557E+03    0.43255E+00    0.00000E+00  1152   0.125E+01 0.000E+00
CGA:   2    -0.148297252449E+03   -0.36220E+00   -0.36212E+00  1152   0.185E+00-0.425E-03
CGA:   3    -0.148353726986E+03   -0.56475E-01   -0.56478E-01  1152   0.385E-01 0.436E-04
CGA:   4    -0.148364228027E+03   -0.10501E-01   -0.10500E-01  1152   0.866E-02-0.325E-05
CGA:   5    -0.148366884590E+03   -0.26566E-02   -0.26566E-02  1152   0.221E-02 0.141E-05
CGA:   6    -0.148367701431E+03   -0.81684E-03   -0.81690E-03  1152   0.681E-03-0.153E-05
CGA:   7    -0.148367950801E+03   -0.24937E-03   -0.24940E-03  1152   0.186E-03-0.687E-06
CGA:   8    -0.148368016191E+03   -0.65390E-04   -0.65372E-04  1152   0.387E-04 0.952E-06
CGA:   9    -0.148368030491E+03   -0.14300E-04   -0.14296E-04  1152   0.800E-05 0.110E-06
CGA:  10    -0.148368033620E+03   -0.31295E-05   -0.31361E-05  1152   0.182E-05-0.114E-06
  45 F= -.14836803E+03 E0= -.14836803E+03  d E =-.455431E-02
       N       E                     dE             d eps       ncg     rms          ort
SDA:   1    -0.148290903606E+03    0.77127E-01    0.00000E+00  1152   0.223E+00 0.000E+00
CGA:   2    -0.148355823361E+03   -0.64920E-01   -0.64930E-01  1152   0.328E-01 0.401E-04
CGA:   3    -0.148365892932E+03   -0.10070E-01   -0.10069E-01  1152   0.689E-02-0.346E-05
CGA:   4    -0.148367763168E+03   -0.18702E-02   -0.18702E-02  1152   0.154E-02-0.119E-05
CGA:   5    -0.148368232806E+03   -0.46964E-03   -0.46969E-03  1152   0.392E-03 0.218E-05
CGA:   6    -0.148368377343E+03   -0.14454E-03   -0.14450E-03  1152   0.119E-03 0.104E-05
CGA:   7    -0.148368421533E+03   -0.44190E-04   -0.44199E-04  1152   0.330E-04-0.251E-06
CGA:   8    -0.148368433215E+03   -0.11682E-04   -0.11687E-04  1152   0.703E-05-0.221E-06
CGA:   9    -0.148368435734E+03   -0.25184E-05   -0.25164E-05  1152   0.141E-05 0.847E-07
  46 F= -.14836844E+03 E0= -.14836844E+03  d E =-.495643E-02
       N       E                     dE             d eps       ncg     rms          ort
SDA:   1    -0.148367314899E+03    0.11183E-02    0.00000E+00  1152   0.699E-02 0.000E+00
CGA:   2    -0.148369475370E+03   -0.21605E-02   -0.21603E-02  1152   0.133E-02-0.398E-05
CGA:   3    -0.148369881474E+03   -0.40610E-03   -0.40611E-03  1152   0.283E-03 0.269E-06
CGA:   4    -0.148369956982E+03   -0.75507E-04   -0.75591E-04  1152   0.561E-04 0.120E-05
CGA:   5    -0.148369974233E+03   -0.17251E-04   -0.17262E-04  1152   0.141E-04 0.405E-06
CGA:   6    -0.148369979544E+03   -0.53110E-05   -0.53092E-05  1152   0.447E-05 0.458E-07
CGA:   7    -0.148369981209E+03   -0.16647E-05   -0.16597E-05  1152   0.121E-05 0.137E-06
CGA:   8    -0.148369981639E+03   -0.42981E-06   -0.42936E-06  1152   0.247E-06 0.519E-07
  47 F= -.14836998E+03 E0= -.14836998E+03  d E =-.154590E-02
       N       E                     dE             d eps       ncg     rms          ort
SDA:   1    -0.148349033759E+03    0.20947E-01    0.00000E+00  1152   0.628E-01 0.000E+00
CGA:   2    -0.148368446744E+03   -0.19413E-01   -0.19412E-01  1152   0.119E-01-0.128E-04
CGA:   3    -0.148372095729E+03   -0.36490E-02   -0.36490E-02  1152   0.253E-02 0.109E-06
CGA:   4    -0.148372773811E+03   -0.67808E-03   -0.67833E-03  1152   0.507E-03 0.359E-05
CGA:   5    -0.148372928434E+03   -0.15462E-03   -0.15466E-03  1152   0.128E-03 0.133E-05
CGA:   6    -0.148372976466E+03   -0.48032E-04   -0.48024E-04  1152   0.409E-04 0.205E-06
CGA:   7    -0.148372991911E+03   -0.15445E-04   -0.15427E-04  1152   0.114E-04 0.416E-06
CGA:   8    -0.148372995946E+03   -0.40342E-05   -0.40317E-05  1152   0.234E-05 0.173E-06
  48 F= -.14837300E+03 E0= -.14837300E+03  d E =-.456021E-02
       N       E                     dE             d eps       ncg     rms          ort
SDA:   1    -0.148275990475E+03    0.97001E-01    0.00000E+00  1152   0.251E+00 0.000E+00
CGA:   2    -0.148353611713E+03   -0.77621E-01   -0.77618E-01  1152   0.478E-01-0.349E-04
CGA:   3    -0.148368206777E+03   -0.14595E-01   -0.14595E-01  1152   0.101E-01-0.181E-06
CGA:   4    -0.148370916384E+03   -0.27096E-02   -0.27101E-02  1152   0.202E-02 0.726E-05
CGA:   5    -0.148371533477E+03   -0.61709E-03   -0.61718E-03  1152   0.512E-03 0.310E-05
CGA:   6    -0.148371725040E+03   -0.19156E-03   -0.19154E-03  1152   0.163E-03 0.545E-06
CGA:   7    -0.148371786941E+03   -0.61902E-04   -0.61863E-04  1152   0.459E-04 0.851E-06
CGA:   8    -0.148371803179E+03   -0.16238E-04   -0.16231E-04  1152   0.946E-05 0.389E-06
CGA:   9    -0.148371806647E+03   -0.34673E-05   -0.34715E-05  1152   0.200E-05-0.151E-06
  49 F= -.14837181E+03 E0= -.14837181E+03  d E =-.337091E-02
       N       E                     dE             d eps       ncg     rms          ort
SDA:   1    -0.148336731816E+03    0.35071E-01    0.00000E+00  1152   0.968E-01 0.000E+00
CGA:   2    -0.148366646718E+03   -0.29915E-01   -0.29916E-01  1152   0.184E-01 0.233E-04
CGA:   3    -0.148372271750E+03   -0.56250E-02   -0.56249E-02  1152   0.392E-02-0.421E-05
CGA:   4    -0.148373324103E+03   -0.10524E-02   -0.10520E-02  1152   0.790E-03-0.531E-05
CGA:   5    -0.148373565568E+03   -0.24147E-03   -0.24143E-03  1152   0.200E-03-0.127E-05
CGA:   6    -0.148373640211E+03   -0.74643E-04   -0.74649E-04  1152   0.634E-04-0.161E-06
CGA:   7    -0.148373664473E+03   -0.24262E-04   -0.24293E-04  1152   0.182E-04-0.634E-06
CGA:   8    -0.148373670843E+03   -0.63703E-05   -0.63730E-05  1152   0.378E-05-0.171E-06
CGA:   9    -0.148373672122E+03   -0.12786E-05   -0.12782E-05  1152   0.729E-06 0.131E-06
  50 F= -.14837367E+03 E0= -.14837367E+03  d E =-.523639E-02
       N       E                     dE             d eps       ncg     rms          ort
SDA:   1    -0.148370086525E+03    0.35843E-02    0.00000E+00  1152   0.145E-01 0.000E+00
CGA:   2    -0.148374419092E+03   -0.43326E-02   -0.43314E-02  1152   0.289E-02-0.292E-04
CGA:   3    -0.148375233021E+03   -0.81393E-03   -0.81402E-03  1152   0.653E-03 0.210E-05
CGA:   4    -0.148375398890E+03   -0.16587E-03   -0.16611E-03  1152   0.116E-03 0.295E-05
CGA:   5    -0.148375433374E+03   -0.34484E-04   -0.34522E-04  1152   0.266E-04 0.111E-05
CGA:   6    -0.148375442666E+03   -0.92920E-05   -0.92944E-05  1152   0.844E-05-0.131E-06
CGA:   7    -0.148375445660E+03   -0.29945E-05   -0.29862E-05  1152   0.234E-05 0.323E-06
CGA:   8    -0.148375446499E+03   -0.83859E-06   -0.83554E-06  1152   0.479E-06 0.248E-06
  51 F= -.14837545E+03 E0= -.14837545E+03  d E =-.177438E-02
       N       E                     dE             d eps       ncg     rms          ort
SDA:   1    -0.148330590567E+03    0.44855E-01    0.00000E+00  1152   0.131E+00 0.000E+00
CGA:   2    -0.148369489872E+03   -0.38899E-01   -0.38898E-01  1152   0.259E-01-0.608E-04
CGA:   3    -0.148376812349E+03   -0.73225E-02   -0.73219E-02  1152   0.586E-02 0.114E-05
CGA:   4    -0.148378303670E+03   -0.14913E-02   -0.14921E-02  1152   0.105E-02 0.906E-05
CGA:   5    -0.148378614311E+03   -0.31064E-03   -0.31075E-03  1152   0.241E-03 0.355E-05
CGA:   6    -0.148378697440E+03   -0.83129E-04   -0.83136E-04  1152   0.756E-04-0.327E-06
CGA:   7    -0.148378725085E+03   -0.27645E-04   -0.27606E-04  1152   0.220E-04 0.989E-06
CGA:   8    -0.148378733218E+03   -0.81333E-05   -0.81056E-05  1152   0.460E-05 0.799E-06
CGA:   9    -0.148378735030E+03   -0.18124E-05   -0.18191E-05  1152   0.103E-05-0.130E-06
  52 F= -.14837874E+03 E0= -.14837874E+03  d E =-.506291E-02
       N       E                     dE             d eps       ncg     rms          ort
SDA:   1    -0.148183896699E+03    0.19484E+00    0.00000E+00  1152   0.523E+00 0.000E+00
CGA:   2    -0.148339307317E+03   -0.15541E+00   -0.15542E+00  1152   0.103E+00 0.574E-04
CGA:   3    -0.148368579299E+03   -0.29272E-01   -0.29266E-01  1152   0.235E-01-0.247E-04
CGA:   4    -0.148374522249E+03   -0.59429E-02   -0.59455E-02  1152   0.422E-02 0.211E-04
CGA:   5    -0.148375767206E+03   -0.12450E-02   -0.12452E-02  1152   0.968E-03 0.797E-05
CGA:   6    -0.148376099702E+03   -0.33250E-03   -0.33250E-03  1152   0.303E-03-0.391E-06
CGA:   7    -0.148376211127E+03   -0.11142E-03   -0.11134E-03  1152   0.897E-04 0.198E-05
CGA:   8    -0.148376244414E+03   -0.33288E-04   -0.33220E-04  1152   0.190E-04 0.170E-05
CGA:   9    -0.148376251614E+03   -0.71996E-05   -0.72087E-05  1152   0.398E-05-0.220E-06
CGA:  10    -0.148376253083E+03   -0.14689E-05   -0.14744E-05  1152   0.890E-06-0.131E-06
  53 F= -.14837625E+03 E0= -.14837625E+03  d E =-.258096E-02
       N       E                     dE             d eps       ncg     rms          ort
SDA:   1    -0.148283942326E+03    0.92309E-01    0.00000E+00  1152   0.259E+00 0.000E+00
CGA:   2    -0.148360861619E+03   -0.76919E-01   -0.76919E-01  1152   0.515E-01 0.645E-04
CGA:   3    -0.148375390899E+03   -0.14529E-01   -0.14531E-01  1152   0.117E-01-0.128E-05
CGA:   4    -0.148378390742E+03   -0.29998E-02   -0.29983E-02  1152   0.211E-02-0.162E-04
CGA:   5    -0.148379016339E+03   -0.62560E-03   -0.62546E-03  1152   0.491E-03-0.429E-05
CGA:   6    -0.148379182974E+03   -0.16664E-03   -0.16662E-03  1152   0.150E-03 0.900E-06
CGA:   7    -0.148379239526E+03   -0.56551E-04   -0.56626E-04  1152   0.456E-04-0.154E-05
CGA:   8    -0.148379256617E+03   -0.17091E-04   -0.17147E-04  1152   0.100E-04-0.112E-05
CGA:   9    -0.148379260030E+03   -0.34125E-05   -0.34080E-05  1152   0.182E-05 0.287E-06
  54 F= -.14837926E+03 E0= -.14837926E+03  d E =-.558791E-02
       N       E                     dE             d eps       ncg     rms          ort
SDA:   1    -0.148374705933E+03    0.45507E-02    0.00000E+00  1152   0.181E-01 0.000E+00
CGA:   2    -0.148380095541E+03   -0.53896E-02   -0.53879E-02  1152   0.335E-02-0.486E-04
CGA:   3    -0.148381015510E+03   -0.91997E-03   -0.92024E-03  1152   0.808E-03 0.533E-05
CGA:   4    -0.148381223498E+03   -0.20799E-03   -0.20831E-03  1152   0.147E-03 0.445E-05
CGA:   5    -0.148381268644E+03   -0.45147E-04   -0.45162E-04  1152   0.369E-04 0.755E-06
CGA:   6    -0.148381281215E+03   -0.12571E-04   -0.12570E-04  1152   0.116E-04 0.634E-07
CGA:   7    -0.148381285243E+03   -0.40286E-05   -0.40157E-05  1152   0.293E-05 0.658E-06
CGA:   8    -0.148381286337E+03   -0.10933E-05   -0.10862E-05  1152   0.643E-06 0.297E-06
  55 F= -.14838129E+03 E0= -.14838129E+03  d E =-.202631E-02
       N       E                     dE             d eps       ncg     rms          ort
SDA:   1    -0.148324997576E+03    0.56288E-01    0.00000E+00  1152   0.162E+00 0.000E+00
CGA:   2    -0.148373341994E+03   -0.48344E-01   -0.48343E-01  1152   0.299E-01-0.104E-03
CGA:   3    -0.148381603151E+03   -0.82612E-02   -0.82609E-02  1152   0.726E-02 0.982E-05
CGA:   4    -0.148383470326E+03   -0.18672E-02   -0.18682E-02  1152   0.133E-02 0.133E-04
CGA:   5    -0.148383875632E+03   -0.40531E-03   -0.40536E-03  1152   0.334E-03 0.255E-05
CGA:   6    -0.148383989199E+03   -0.11357E-03   -0.11356E-03  1152   0.106E-03 0.310E-06
CGA:   7    -0.148384027171E+03   -0.37972E-04   -0.37902E-04  1152   0.282E-04 0.203E-05
CGA:   8    -0.148384037788E+03   -0.10617E-04   -0.10578E-04  1152   0.619E-05 0.902E-06
CGA:   9    -0.148384040220E+03   -0.24322E-05   -0.24445E-05  1152   0.151E-05-0.228E-06
  56 F= -.14838404E+03 E0= -.14838404E+03  d E =-.478019E-02
       N       E                     dE             d eps       ncg     rms          ort
SDA:   1    -0.148378156974E+03    0.58808E-02    0.00000E+00  1152   0.232E-01 0.000E+00
CGA:   2    -0.148384481127E+03   -0.63242E-02   -0.63212E-02  1152   0.497E-02-0.570E-04
CGA:   3    -0.148385765685E+03   -0.12846E-02   -0.12845E-02  1152   0.111E-02 0.138E-05
CGA:   4    -0.148386067388E+03   -0.30170E-03   -0.30216E-03  1152   0.216E-03 0.839E-05
CGA:   5    -0.148386130457E+03   -0.63069E-04   -0.63149E-04  1152   0.569E-04 0.239E-05
CGA:   6    -0.148386150041E+03   -0.19584E-04   -0.19588E-04  1152   0.169E-04-0.235E-06
CGA:   7    -0.148386156153E+03   -0.61117E-05   -0.60879E-05  1152   0.446E-05 0.612E-06
CGA:   8    -0.148386157705E+03   -0.15516E-05   -0.15469E-05  1152   0.971E-06 0.451E-06
  57 F= -.14838616E+03 E0= -.14838616E+03  d E =-.211748E-02
       N       E                     dE             d eps       ncg     rms          ort
SDA:   1    -0.148318381523E+03    0.67775E-01    0.00000E+00  1152   0.209E+00 0.000E+00
CGA:   2    -0.148375087859E+03   -0.56706E-01   -0.56713E-01  1152   0.445E-01-0.880E-04
CGA:   3    -0.148386642228E+03   -0.11554E-01   -0.11551E-01  1152   0.100E-01-0.670E-05
CGA:   4    -0.148389374672E+03   -0.27324E-02   -0.27338E-02  1152   0.196E-02 0.256E-04
CGA:   5    -0.148389945483E+03   -0.57081E-03   -0.57104E-03  1152   0.519E-03 0.763E-05
CGA:   6    -0.148390120664E+03   -0.17518E-03   -0.17519E-03  1152   0.151E-03-0.569E-06
CGA:   7    -0.148390176641E+03   -0.55977E-04   -0.55885E-04  1152   0.416E-04 0.184E-05
CGA:   8    -0.148390191581E+03   -0.14940E-04   -0.14896E-04  1152   0.931E-05 0.143E-05
CGA:   9    -0.148390195166E+03   -0.35852E-05   -0.36033E-05  1152   0.224E-05-0.362E-06
  58 F= -.14839020E+03 E0= -.14839020E+03  d E =-.615495E-02
       N       E                     dE             d eps       ncg     rms          ort
SDA:   1    -0.148102185634E+03    0.28801E+00    0.00000E+00  1152   0.830E+00 0.000E+00
CGA:   2    -0.148327692135E+03   -0.22551E+00   -0.22563E+00  1152   0.177E+00 0.394E-03
CGA:   3    -0.148373659235E+03   -0.45967E-01   -0.45942E-01  1152   0.404E-01-0.723E-04
CGA:   4    -0.148384587295E+03   -0.10928E-01   -0.10932E-01  1152   0.794E-02 0.568E-04
CGA:   5    -0.148386880583E+03   -0.22933E-02   -0.22939E-02  1152   0.209E-02 0.173E-04
CGA:   6    -0.148387582430E+03   -0.70185E-03   -0.70186E-03  1152   0.607E-03-0.610E-06
CGA:   7    -0.148387808404E+03   -0.22597E-03   -0.22579E-03  1152   0.171E-03 0.360E-05
CGA:   8    -0.148387869853E+03   -0.61449E-04   -0.61346E-04  1152   0.391E-04 0.295E-05
CGA:   9    -0.148387884243E+03   -0.14389E-04   -0.14414E-04  1152   0.875E-05-0.649E-06
CGA:  10    -0.148387887471E+03   -0.32283E-05   -0.32441E-05  1152   0.195E-05-0.309E-06
  59 F= -.14838789E+03 E0= -.14838789E+03  d E =-.384725E-02
       N       E                     dE             d eps       ncg     rms          ort
SDA:   1    -0.148264854074E+03    0.12303E+00    0.00000E+00  1152   0.368E+00 0.000E+00
CGA:   2    -0.148364345206E+03   -0.99491E-01   -0.99467E-01  1152   0.783E-01 0.547E-04
CGA:   3    -0.148384671381E+03   -0.20326E-01   -0.20333E-01  1152   0.177E-01 0.981E-05
CGA:   4    -0.148389514474E+03   -0.48431E-02   -0.48409E-02  1152   0.352E-02-0.410E-04
CGA:   5    -0.148390538032E+03   -0.10236E-02   -0.10233E-02  1152   0.943E-03-0.932E-05
CGA:   6    -0.148390850807E+03   -0.31277E-03   -0.31275E-03  1152   0.268E-03 0.188E-05
CGA:   7    -0.148390952207E+03   -0.10140E-03   -0.10156E-03  1152   0.771E-04-0.276E-05
CGA:   8    -0.148390980219E+03   -0.28012E-04   -0.28101E-04  1152   0.181E-04-0.200E-05
CGA:   9    -0.148390986144E+03   -0.59252E-05   -0.59188E-05  1152   0.346E-05 0.634E-06
CGA:  10    -0.148390987403E+03   -0.12589E-05   -0.12536E-05  1152   0.759E-06 0.230E-06
  60 F= -.14839099E+03 E0= -.14839099E+03  d E =-.694718E-02
       N       E                     dE             d eps       ncg     rms          ort
SDA:   1    -0.148388696829E+03    0.22893E-02    0.00000E+00  1152   0.102E-01 0.000E+00
CGA:   2    -0.148391605179E+03   -0.29084E-02   -0.29062E-02  1152   0.204E-02-0.451E-04
CGA:   3    -0.148392137757E+03   -0.53258E-03   -0.53283E-03  1152   0.476E-03 0.397E-05
CGA:   4    -0.148392264540E+03   -0.12678E-03   -0.12717E-03  1152   0.879E-04 0.626E-05
CGA:   5    -0.148392291528E+03   -0.26988E-04   -0.27016E-04  1152   0.249E-04 0.127E-05
CGA:   6    -0.148392300013E+03   -0.84849E-05   -0.84843E-05  1152   0.763E-05 0.467E-07
CGA:   7    -0.148392302632E+03   -0.26192E-05   -0.26084E-05  1152   0.183E-05 0.654E-06
CGA:   8    -0.148392303280E+03   -0.64841E-06   -0.64819E-06  1152   0.421E-06 0.291E-06
  61 F= -.14839230E+03 E0= -.14839230E+03  d E =-.131588E-02
       N       E                     dE             d eps       ncg     rms          ort
SDA:   1    -0.148362961994E+03    0.29341E-01    0.00000E+00  1152   0.914E-01 0.000E+00
CGA:   2    -0.148388989798E+03   -0.26028E-01   -0.26024E-01  1152   0.183E-01-0.113E-03
CGA:   3    -0.148393785460E+03   -0.47957E-02   -0.47957E-02  1152   0.430E-02 0.936E-05
CGA:   4    -0.148394939841E+03   -0.11544E-02   -0.11555E-02  1152   0.801E-03 0.189E-04
CGA:   5    -0.148395185076E+03   -0.24523E-03   -0.24531E-03  1152   0.225E-03 0.395E-05
CGA:   6    -0.148395260851E+03   -0.75775E-04   -0.75772E-04  1152   0.688E-04 0.183E-06
CGA:   7    -0.148395285807E+03   -0.24956E-04   -0.24876E-04  1152   0.177E-04 0.208E-05
CGA:   8    -0.148395292303E+03   -0.64969E-05   -0.64702E-05  1152   0.396E-05 0.891E-06
CGA:   9    -0.148395293904E+03   -0.16007E-05   -0.16215E-05  1152   0.107E-05-0.325E-06
  62 F= -.14839529E+03 E0= -.14839529E+03  d E =-.430650E-02
       N       E                     dE             d eps       ncg     rms          ort
SDA:   1    -0.148268003680E+03    0.12729E+00    0.00000E+00  1152   0.364E+00 0.000E+00
CGA:   2    -0.148371745451E+03   -0.10374E+00   -0.10375E+00  1152   0.728E-01-0.687E-04
CGA:   3    -0.148390879579E+03   -0.19134E-01   -0.19130E-01  1152   0.172E-01 0.715E-05
CGA:   4    -0.148395493910E+03   -0.46143E-02   -0.46169E-02  1152   0.322E-02 0.396E-04
CGA:   5    -0.148396474866E+03   -0.98096E-03   -0.98112E-03  1152   0.901E-03 0.848E-05
CGA:   6    -0.148396776685E+03   -0.30182E-03   -0.30181E-03  1152   0.275E-03 0.559E-06
CGA:   7    -0.148396877671E+03   -0.10099E-03   -0.10080E-03  1152   0.727E-04 0.418E-05
CGA:   8    -0.148396904351E+03   -0.26680E-04   -0.26615E-04  1152   0.164E-04 0.182E-05
CGA:   9    -0.148396910542E+03   -0.61908E-05   -0.62172E-05  1152   0.386E-05-0.612E-06
CGA:  10    -0.148396911935E+03   -0.13929E-05   -0.14000E-05  1152   0.866E-06-0.145E-06
  63 F= -.14839691E+03 E0= -.14839691E+03  d E =-.592453E-02
       N       E                     dE             d eps       ncg     rms          ort
SDA:   1    -0.148390492758E+03    0.64178E-02    0.00000E+00  1152   0.186E-01 0.000E+00
CGA:   2    -0.148395768467E+03   -0.52757E-02   -0.52785E-02  1152   0.369E-02 0.599E-04
CGA:   3    -0.148396749259E+03   -0.98079E-03   -0.98044E-03  1152   0.882E-03-0.603E-05
CGA:   4    -0.148396988696E+03   -0.23944E-03   -0.23893E-03  1152   0.169E-03-0.892E-05
CGA:   5    -0.148397039835E+03   -0.51139E-04   -0.51107E-04  1152   0.479E-04-0.161E-05
CGA:   6    -0.148397055453E+03   -0.15618E-04   -0.15618E-04  1152   0.141E-04 0.286E-07
CGA:   7    -0.148397061025E+03   -0.55712E-05   -0.56525E-05  1152   0.440E-05-0.108E-05
CGA:   8    -0.148397062550E+03   -0.15256E-05   -0.15459E-05  1152   0.104E-05-0.388E-06
  64 F= -.14839706E+03 E0= -.14839706E+03  d E =-.607515E-02
       N       E                     dE             d eps       ncg     rms          ort
SDA:   1    -0.148392228796E+03    0.48322E-02    0.00000E+00  1152   0.187E-01 0.000E+00
CGA:   2    -0.148397545184E+03   -0.53164E-02   -0.53129E-02  1152   0.358E-02-0.833E-04
CGA:   3    -0.148398507806E+03   -0.96262E-03   -0.96283E-03  1152   0.894E-03 0.423E-05
CGA:   4    -0.148398742071E+03   -0.23426E-03   -0.23483E-03  1152   0.174E-03 0.932E-05
CGA:   5    -0.148398797010E+03   -0.54940E-04   -0.54953E-04  1152   0.496E-04 0.189E-05
CGA:   6    -0.148398813955E+03   -0.16945E-04   -0.16941E-04  1152   0.158E-04 0.220E-06
CGA:   7    -0.148398819310E+03   -0.53546E-05   -0.53382E-05  1152   0.376E-05 0.107E-05
CGA:   8    -0.148398820660E+03   -0.13499E-05   -0.13438E-05  1152   0.821E-06 0.460E-06
  65 F= -.14839882E+03 E0= -.14839882E+03  d E =-.175811E-02
       N       E                     dE             d eps       ncg     rms          ort
SDA:   1    -0.148342940245E+03    0.55879E-01    0.00000E+00  1152   0.168E+00 0.000E+00
CGA:   2    -0.148390527181E+03   -0.47587E-01   -0.47583E-01  1152   0.320E-01-0.195E-03
CGA:   3    -0.148399181429E+03   -0.86542E-02   -0.86537E-02  1152   0.803E-02 0.599E-05
CGA:   4    -0.148401297806E+03   -0.21164E-02   -0.21181E-02  1152   0.157E-02 0.280E-04
CGA:   5    -0.148401791438E+03   -0.49363E-03   -0.49366E-03  1152   0.448E-03 0.585E-05
CGA:   6    -0.148401943424E+03   -0.15199E-03   -0.15197E-03  1152   0.143E-03 0.827E-06
CGA:   7    -0.148401993659E+03   -0.50235E-04   -0.50134E-04  1152   0.360E-04 0.335E-05
CGA:   8    -0.148402006809E+03   -0.13150E-04   -0.13102E-04  1152   0.775E-05 0.139E-05
CGA:   9    -0.148402009846E+03   -0.30369E-05   -0.30608E-05  1152   0.203E-05-0.418E-06
  66 F= -.14840201E+03 E0= -.14840201E+03  d E =-.494730E-02
       N       E                     dE             d eps       ncg     rms          ort
SDA:   1    -0.148164080487E+03    0.23793E+00    0.00000E+00  1152   0.667E+00 0.000E+00
CGA:   2    -0.148353401300E+03   -0.18932E+00   -0.18936E+00  1152   0.127E+00-0.164E-04
CGA:   3    -0.148387872765E+03   -0.34471E-01   -0.34464E-01  1152   0.321E-01-0.173E-04
CGA:   4    -0.148396285405E+03   -0.84126E-02   -0.84172E-02  1152   0.629E-02 0.611E-04
CGA:   5    -0.148398254763E+03   -0.19694E-02   -0.19695E-02  1152   0.178E-02 0.129E-04
CGA:   6    -0.148398859606E+03   -0.60484E-03   -0.60481E-03  1152   0.572E-03 0.211E-05
CGA:   7    -0.148399062132E+03   -0.20253E-03   -0.20231E-03  1152   0.147E-03 0.674E-05
CGA:   8    -0.148399116034E+03   -0.53902E-04   -0.53794E-04  1152   0.320E-04 0.285E-05
CGA:   9    -0.148399127977E+03   -0.11943E-04   -0.11975E-04  1152   0.763E-05-0.753E-06
CGA:  10    -0.148399130755E+03   -0.27784E-05   -0.27896E-05  1152   0.177E-05-0.236E-06
  67 F= -.14839913E+03 E0= -.14839913E+03  d E =-.206821E-02
       N       E                     dE             d eps       ncg     rms          ort
SDA:   1    -0.148275396703E+03    0.12373E+00    0.00000E+00  1152   0.362E+00 0.000E+00
CGA:   2    -0.148377628567E+03   -0.10223E+00   -0.10223E+00  1152   0.684E-01 0.227E-03
CGA:   3    -0.148396298821E+03   -0.18670E-01   -0.18672E-01  1152   0.173E-01-0.141E-04
CGA:   4    -0.148400887487E+03   -0.45887E-02   -0.45854E-02  1152   0.346E-02-0.477E-04
CGA:   5    -0.148401973602E+03   -0.10861E-02   -0.10861E-02  1152   0.996E-03-0.715E-05
CGA:   6    -0.148402306883E+03   -0.33328E-03   -0.33329E-03  1152   0.313E-03-0.429E-06
CGA:   7    -0.148402420581E+03   -0.11370E-03   -0.11392E-03  1152   0.839E-04-0.549E-05
CGA:   8    -0.148402450831E+03   -0.30250E-04   -0.30334E-04  1152   0.183E-04-0.198E-05
CGA:   9    -0.148402456868E+03   -0.60373E-05   -0.60305E-05  1152   0.367E-05 0.739E-06
CGA:  10    -0.148402458238E+03   -0.13701E-05   -0.13638E-05  1152   0.860E-06 0.227E-06
  68 F= -.14840246E+03 E0= -.14840246E+03  d E =-.539569E-02
       N       E                     dE             d eps       ncg     rms          ort
SDA:   1    -0.148397463408E+03    0.49935E-02    0.00000E+00  1152   0.175E-01 0.000E+00
CGA:   2    -0.148402515070E+03   -0.50517E-02   -0.50494E-02  1152   0.329E-02-0.530E-04
CGA:   3    -0.148403434748E+03   -0.91968E-03   -0.91990E-03  1152   0.786E-03 0.476E-05
CGA:   4    -0.148403629538E+03   -0.19479E-03   -0.19520E-03  1152   0.147E-03 0.495E-05
CGA:   5    -0.148403674530E+03   -0.44992E-04   -0.45019E-04  1152   0.372E-04 0.127E-05
CGA:   6    -0.148403687339E+03   -0.12809E-04   -0.12808E-04  1152   0.120E-04 0.459E-07
CGA:   7    -0.148403691484E+03   -0.41448E-05   -0.41341E-05  1152   0.314E-05 0.574E-06
CGA:   8    -0.148403692614E+03   -0.11302E-05   -0.11248E-05  1152   0.660E-06 0.341E-06
  69 F= -.14840369E+03 E0= -.14840369E+03  d E =-.123438E-02
       N       E                     dE             d eps       ncg     rms          ort
SDA:   1    -0.148358703975E+03    0.44988E-01    0.00000E+00  1152   0.131E+00 0.000E+00
CGA:   2    -0.148396298075E+03   -0.37594E-01   -0.37592E-01  1152   0.245E-01-0.116E-03
CGA:   3    -0.148403174042E+03   -0.68760E-02   -0.68759E-02  1152   0.589E-02 0.785E-05
CGA:   4    -0.148404637511E+03   -0.14635E-02   -0.14646E-02  1152   0.111E-02 0.136E-04
CGA:   5    -0.148404975921E+03   -0.33841E-03   -0.33847E-03  1152   0.280E-03 0.364E-05
CGA:   6    -0.148405071633E+03   -0.95712E-04   -0.95708E-04  1152   0.904E-04 0.217E-06
CGA:   7    -0.148405103687E+03   -0.32054E-04   -0.32003E-04  1152   0.248E-04 0.162E-05
CGA:   8    -0.148405112809E+03   -0.91225E-05   -0.90870E-05  1152   0.521E-05 0.974E-06
CGA:   9    -0.148405114825E+03   -0.20153E-05   -0.20216E-05  1152   0.127E-05-0.133E-06
  70 F= -.14840511E+03 E0= -.14840511E+03  d E =-.265659E-02
       N       E                     dE             d eps       ncg     rms          ort
SDA:   1    -0.148402490601E+03    0.26222E-02    0.00000E+00  1152   0.100E-01 0.000E+00
CGA:   2    -0.148405412458E+03   -0.29219E-02   -0.29208E-02  1152   0.179E-02-0.283E-04
CGA:   3    -0.148405927469E+03   -0.51501E-03   -0.51520E-03  1152   0.399E-03 0.497E-05
CGA:   4    -0.148406026547E+03   -0.99077E-04   -0.99278E-04  1152   0.823E-04 0.256E-05
CGA:   5    -0.148406051581E+03   -0.25035E-04   -0.25050E-04  1152   0.198E-04 0.774E-06
CGA:   6    -0.148406058703E+03   -0.71220E-05   -0.71183E-05  1152   0.652E-05 0.113E-06
CGA:   7    -0.148406060887E+03   -0.21841E-05   -0.21808E-05  1152   0.175E-05 0.347E-06
CGA:   8    -0.148406061517E+03   -0.62967E-06   -0.62679E-06  1152   0.368E-06 0.180E-06
  71 F= -.14840606E+03 E0= -.14840606E+03  d E =-.946693E-03
       N       E                     dE             d eps       ncg     rms          ort
SDA:   1    -0.148375744532E+03    0.30316E-01    0.00000E+00  1152   0.905E-01 0.000E+00
CGA:   2    -0.148401990805E+03   -0.26246E-01   -0.26245E-01  1152   0.161E-01-0.679E-04
CGA:   3    -0.148406648629E+03   -0.46578E-02   -0.46582E-02  1152   0.360E-02 0.127E-04
CGA:   4    -0.148407545904E+03   -0.89727E-03   -0.89791E-03  1152   0.742E-03 0.769E-05
CGA:   5    -0.148407772388E+03   -0.22648E-03   -0.22652E-03  1152   0.179E-03 0.244E-05
CGA:   6    -0.148407836284E+03   -0.63897E-04   -0.63883E-04  1152   0.582E-04 0.393E-06
CGA:   7    -0.148407856323E+03   -0.20038E-04   -0.20016E-04  1152   0.164E-04 0.106E-05
CGA:   8    -0.148407862275E+03   -0.59527E-05   -0.59360E-05  1152   0.345E-05 0.536E-06
CGA:   9    -0.148407863654E+03   -0.13788E-05   -0.13846E-05  1152   0.844E-06-0.926E-07
  72 F= -.14840786E+03 E0= -.14840786E+03  d E =-.274883E-02
       N       E                     dE             d eps       ncg     rms          ort
SDA:   1    -0.148278457322E+03    0.12940E+00    0.00000E+00  1152   0.361E+00 0.000E+00
CGA:   2    -0.148383199602E+03   -0.10474E+00   -0.10475E+00  1152   0.643E-01-0.187E-04
CGA:   3    -0.148401874941E+03   -0.18675E-01   -0.18675E-01  1152   0.144E-01 0.173E-04
CGA:   4    -0.148405458448E+03   -0.35835E-02   -0.35853E-02  1152   0.299E-02 0.163E-04
CGA:   5    -0.148406367986E+03   -0.90954E-03   -0.90964E-03  1152   0.719E-03 0.525E-05
CGA:   6    -0.148406624950E+03   -0.25696E-03   -0.25693E-03  1152   0.234E-03 0.947E-06
CGA:   7    -0.148406705878E+03   -0.80928E-04   -0.80882E-04  1152   0.670E-04 0.207E-05
CGA:   8    -0.148406730097E+03   -0.24219E-04   -0.24183E-04  1152   0.142E-04 0.107E-05
CGA:   9    -0.148406735557E+03   -0.54595E-05   -0.54672E-05  1152   0.325E-05-0.146E-06
CGA:  10    -0.148406736773E+03   -0.12169E-05   -0.12216E-05  1152   0.805E-06-0.909E-07
  73 F= -.14840674E+03 E0= -.14840674E+03  d E =-.162195E-02
       N       E                     dE             d eps       ncg     rms          ort
SDA:   1    -0.148348441871E+03    0.58294E-01    0.00000E+00  1152   0.169E+00 0.000E+00
CGA:   2    -0.148397238142E+03   -0.48796E-01   -0.48796E-01  1152   0.298E-01 0.835E-04
CGA:   3    -0.148405932223E+03   -0.86941E-02   -0.86934E-02  1152   0.670E-02-0.234E-04
CGA:   4    -0.148407603460E+03   -0.16712E-02   -0.16701E-02  1152   0.139E-02-0.123E-04
CGA:   5    -0.148408027658E+03   -0.42420E-03   -0.42414E-03  1152   0.337E-03-0.258E-05
CGA:   6    -0.148408146847E+03   -0.11919E-03   -0.11920E-03  1152   0.109E-03-0.328E-06
CGA:   7    -0.148408185399E+03   -0.38552E-04   -0.38597E-04  1152   0.324E-04-0.163E-05
CGA:   8    -0.148408197064E+03   -0.11665E-04   -0.11692E-04  1152   0.699E-05-0.708E-06
CGA:   9    -0.148408199511E+03   -0.24474E-05   -0.24421E-05  1152   0.141E-05 0.197E-06
  74 F= -.14840820E+03 E0= -.14840820E+03  d E =-.308469E-02
       N       E                     dE             d eps       ncg     rms          ort
SDA:   1    -0.148406027255E+03    0.21698E-02    0.00000E+00  1152   0.773E-02 0.000E+00
CGA:   2    -0.148408253463E+03   -0.22262E-02   -0.22259E-02  1152   0.159E-02-0.720E-05
CGA:   3    -0.148408700891E+03   -0.44743E-03   -0.44759E-03  1152   0.354E-03 0.349E-05
CGA:   4    -0.148408790504E+03   -0.89613E-04   -0.89702E-04  1152   0.676E-04 0.117E-05
CGA:   5    -0.148408811401E+03   -0.20897E-04   -0.20901E-04  1152   0.160E-04 0.302E-06
CGA:   6    -0.148408816868E+03   -0.54672E-05   -0.54687E-05  1152   0.508E-05-0.924E-07
CGA:   7    -0.148408818606E+03   -0.17382E-05   -0.17361E-05  1152   0.140E-05 0.104E-06
CGA:   8    -0.148408819130E+03   -0.52383E-06   -0.52171E-06  1152   0.315E-06 0.527E-07
  75 F= -.14840882E+03 E0= -.14840882E+03  d E =-.619618E-03
       N       E                     dE             d eps       ncg     rms          ort
SDA:   1    -0.148401213415E+03    0.76052E-02    0.00000E+00  1152   0.222E-01 0.000E+00
CGA:   2    -0.148407597768E+03   -0.63844E-02   -0.63841E-02  1152   0.455E-02-0.108E-04
CGA:   3    -0.148408883782E+03   -0.12860E-02   -0.12862E-02  1152   0.102E-02 0.554E-05
CGA:   4    -0.148409141217E+03   -0.25744E-03   -0.25759E-03  1152   0.195E-03 0.196E-05
CGA:   5    -0.148409201228E+03   -0.60010E-04   -0.60019E-04  1152   0.466E-04 0.524E-06
CGA:   6    -0.148409217082E+03   -0.15855E-04   -0.15857E-04  1152   0.148E-04-0.151E-06
CGA:   7    -0.148409222231E+03   -0.51493E-05   -0.51452E-05  1152   0.417E-05 0.176E-06
CGA:   8    -0.148409223798E+03   -0.15667E-05   -0.15628E-05  1152   0.948E-06 0.874E-07
  76 F= -.14840922E+03 E0= -.14840922E+03  d E =-.102429E-02
       N       E                     dE             d eps       ncg     rms          ort
SDA:   1    -0.148406572086E+03    0.26501E-02    0.00000E+00  1152   0.915E-02 0.000E+00
CGA:   2    -0.148409274651E+03   -0.27026E-02   -0.27025E-02  1152   0.165E-02-0.402E-05
CGA:   3    -0.148409774902E+03   -0.50025E-03   -0.50034E-03  1152   0.318E-03 0.340E-05
CGA:   4    -0.148409857289E+03   -0.82387E-04   -0.82428E-04  1152   0.724E-04 0.594E-06
CGA:   5    -0.148409879053E+03   -0.21764E-04   -0.21762E-04  1152   0.177E-04-0.804E-07
CGA:   6    -0.148409885519E+03   -0.64664E-05   -0.64697E-05  1152   0.554E-05-0.701E-07
CGA:   7    -0.148409887474E+03   -0.19550E-05   -0.19509E-05  1152   0.156E-05 0.139E-06
CGA:   8    -0.148409888031E+03   -0.55690E-06   -0.55603E-06  1152   0.343E-06 0.356E-07
  77 F= -.14840989E+03 E0= -.14840989E+03  d E =-.664233E-03
       N       E                     dE             d eps       ncg     rms          ort
SDA:   1    -0.148381353168E+03    0.28534E-01    0.00000E+00  1152   0.810E-01 0.000E+00
CGA:   2    -0.148405280087E+03   -0.23927E-01   -0.23928E-01  1152   0.147E-01-0.294E-05
CGA:   3    -0.148409726240E+03   -0.44462E-02   -0.44464E-02  1152   0.284E-02 0.910E-05
CGA:   4    -0.148410459753E+03   -0.73351E-03   -0.73364E-03  1152   0.648E-03 0.164E-05
CGA:   5    -0.148410653373E+03   -0.19362E-03   -0.19362E-03  1152   0.157E-03-0.135E-06
CGA:   6    -0.148410710520E+03   -0.57147E-04   -0.57154E-04  1152   0.489E-04-0.184E-06
CGA:   7    -0.148410728094E+03   -0.17574E-04   -0.17560E-04  1152   0.142E-04 0.405E-06
CGA:   8    -0.148410733098E+03   -0.50044E-05   -0.50020E-05  1152   0.309E-05 0.106E-06
CGA:   9    -0.148410734249E+03   -0.11503E-05   -0.11526E-05  1152   0.690E-06-0.548E-07
  78 F= -.14841073E+03 E0= -.14841073E+03  d E =-.151045E-02
       N       E                     dE             d eps       ncg     rms          ort
SDA:   1    -0.148407039047E+03    0.36941E-02    0.00000E+00  1152   0.128E-01 0.000E+00
CGA:   2    -0.148410686365E+03   -0.36473E-02   -0.36466E-02  1152   0.228E-02-0.159E-04
CGA:   3    -0.148411386275E+03   -0.69991E-03   -0.69995E-03  1152   0.396E-03 0.171E-05
CGA:   4    -0.148411493396E+03   -0.10712E-03   -0.10719E-03  1152   0.946E-04 0.115E-05
CGA:   5    -0.148411521239E+03   -0.27844E-04   -0.27832E-04  1152   0.232E-04-0.360E-06
CGA:   6    -0.148411529627E+03   -0.83881E-05   -0.83926E-05  1152   0.703E-05-0.116E-06
CGA:   7    -0.148411532086E+03   -0.24589E-05   -0.24527E-05  1152   0.194E-05 0.245E-06
CGA:   8    -0.148411532769E+03   -0.68316E-06   -0.68168E-06  1152   0.412E-06 0.109E-06
  79 F= -.14841153E+03 E0= -.14841153E+03  d E =-.798520E-03
       N       E                     dE             d eps       ncg     rms          ort
SDA:   1    -0.148372448803E+03    0.39083E-01    0.00000E+00  1152   0.115E+00 0.000E+00
CGA:   2    -0.148405226444E+03   -0.32778E-01   -0.32778E-01  1152   0.205E-01-0.346E-04
CGA:   3    -0.148411541789E+03   -0.63153E-02   -0.63155E-02  1152   0.358E-02 0.411E-05
CGA:   4    -0.148412513516E+03   -0.97173E-03   -0.97188E-03  1152   0.852E-03 0.317E-05
CGA:   5    -0.148412764002E+03   -0.25049E-03   -0.25045E-03  1152   0.208E-03-0.102E-05
CGA:   6    -0.148412839123E+03   -0.75122E-04   -0.75133E-04  1152   0.624E-04-0.281E-06
CGA:   7    -0.148412861578E+03   -0.22455E-04   -0.22430E-04  1152   0.180E-04 0.730E-06
CGA:   8    -0.148412867883E+03   -0.63052E-05   -0.62987E-05  1152   0.384E-05 0.330E-06
CGA:   9    -0.148412869370E+03   -0.14861E-05   -0.14876E-05  1152   0.866E-06-0.239E-07
  80 F= -.14841287E+03 E0= -.14841287E+03  d E =-.213512E-02
       N       E                     dE             d eps       ncg     rms          ort
SDA:   1    -0.148408562805E+03    0.43051E-02    0.00000E+00  1152   0.126E-01 0.000E+00
CGA:   2    -0.148412130245E+03   -0.35674E-02   -0.35667E-02  1152   0.223E-02-0.159E-04
CGA:   3    -0.148412815871E+03   -0.68563E-03   -0.68567E-03  1152   0.388E-03 0.177E-05
CGA:   4    -0.148412920740E+03   -0.10487E-03   -0.10493E-03  1152   0.930E-04 0.112E-05
CGA:   5    -0.148412948054E+03   -0.27314E-04   -0.27301E-04  1152   0.228E-04-0.391E-06
CGA:   6    -0.148412956304E+03   -0.82495E-05   -0.82535E-05  1152   0.688E-05-0.102E-06
CGA:   7    -0.148412958718E+03   -0.24142E-05   -0.24082E-05  1152   0.190E-05 0.247E-06
CGA:   8    -0.148412959388E+03   -0.67022E-06   -0.66897E-06  1152   0.405E-06 0.105E-06
  81 F= -.14841296E+03 E0= -.14841296E+03  d E =-.222514E-02
       N       E                     dE             d eps       ncg     rms          ort
SDA:   1    -0.148405514542E+03    0.74442E-02    0.00000E+00  1152   0.216E-01 0.000E+00
CGA:   2    -0.148412138317E+03   -0.66238E-02   -0.66232E-02  1152   0.457E-02-0.250E-04
CGA:   3    -0.148413451959E+03   -0.13136E-02   -0.13138E-02  1152   0.922E-03 0.280E-05
CGA:   4    -0.148413685506E+03   -0.23355E-03   -0.23373E-03  1152   0.191E-03 0.242E-05
CGA:   5    -0.148413744379E+03   -0.58872E-04   -0.58873E-04  1152   0.440E-04 0.431E-07
CGA:   6    -0.148413760095E+03   -0.15716E-04   -0.15721E-04  1152   0.142E-04-0.156E-06
CGA:   7    -0.148413765033E+03   -0.49380E-05   -0.49298E-05  1152   0.410E-05 0.362E-06
CGA:   8    -0.148413766517E+03   -0.14843E-05   -0.14800E-05  1152   0.890E-06 0.170E-06
  82 F= -.14841377E+03 E0= -.14841377E+03  d E =-.807129E-03
       N       E                     dE             d eps       ncg     rms          ort
SDA:   1    -0.148406723165E+03    0.70419E-02    0.00000E+00  1152   0.191E-01 0.000E+00
CGA:   2    -0.148412575838E+03   -0.58527E-02   -0.58521E-02  1152   0.404E-02-0.237E-04
CGA:   3    -0.148413737144E+03   -0.11613E-02   -0.11614E-02  1152   0.812E-03 0.269E-05
CGA:   4    -0.148413943239E+03   -0.20609E-03   -0.20627E-03  1152   0.168E-03 0.229E-05
CGA:   5    -0.148413995114E+03   -0.51875E-04   -0.51875E-04  1152   0.388E-04 0.227E-07
CGA:   6    -0.148414009010E+03   -0.13897E-04   -0.13901E-04  1152   0.126E-04-0.141E-06
CGA:   7    -0.148414013368E+03   -0.43574E-05   -0.43496E-05  1152   0.362E-05 0.344E-06
CGA:   8    -0.148414014677E+03   -0.13096E-05   -0.13055E-05  1152   0.785E-06 0.157E-06
  83 F= -.14841401E+03 E0= -.14841401E+03  d E =-.105529E-02
       N       E                     dE             d eps       ncg     rms          ort
SDA:   1    -0.148403932522E+03    0.10081E-01    0.00000E+00  1152   0.268E-01 0.000E+00
CGA:   2    -0.148412776345E+03   -0.88438E-02   -0.88438E-02  1152   0.591E-02-0.133E-04
CGA:   3    -0.148414431106E+03   -0.16548E-02   -0.16550E-02  1152   0.110E-02 0.352E-05
CGA:   4    -0.148414715330E+03   -0.28422E-03   -0.28439E-03  1152   0.221E-03 0.243E-05
CGA:   5    -0.148414782059E+03   -0.66729E-04   -0.66725E-04  1152   0.510E-04-0.181E-06
CGA:   6    -0.148414800386E+03   -0.18327E-04   -0.18323E-04  1152   0.166E-04 0.101E-06
CGA:   7    -0.148414806461E+03   -0.60748E-05   -0.60585E-05  1152   0.486E-05 0.423E-06
CGA:   8    -0.148414808255E+03   -0.17938E-05   -0.17904E-05  1152   0.108E-05 0.106E-06
  84 F= -.14841481E+03 E0= -.14841481E+03  d E =-.793578E-03
       N       E                     dE             d eps       ncg     rms          ort
SDA:   1    -0.148402900905E+03    0.11906E-01    0.00000E+00  1152   0.300E-01 0.000E+00
CGA:   2    -0.148412814050E+03   -0.99131E-02   -0.99131E-02  1152   0.663E-02-0.138E-04
CGA:   3    -0.148414670408E+03   -0.18564E-02   -0.18566E-02  1152   0.123E-02 0.381E-05
CGA:   4    -0.148414989108E+03   -0.31870E-03   -0.31887E-03  1152   0.248E-03 0.256E-05
CGA:   5    -0.148415063754E+03   -0.74646E-04   -0.74641E-04  1152   0.572E-04-0.187E-06
CGA:   6    -0.148415084268E+03   -0.20514E-04   -0.20510E-04  1152   0.186E-04 0.112E-06
CGA:   7    -0.148415091088E+03   -0.68201E-05   -0.68029E-05  1152   0.547E-05 0.448E-06
CGA:   8    -0.148415093108E+03   -0.20194E-05   -0.20157E-05  1152   0.121E-05 0.110E-06
  85 F= -.14841509E+03 E0= -.14841509E+03  d E =-.107843E-02
       N       E                     dE             d eps       ncg     rms          ort
SDA:   1    -0.148409034461E+03    0.60566E-02    0.00000E+00  1152   0.181E-01 0.000E+00
CGA:   2    -0.148414722867E+03   -0.56884E-02   -0.56883E-02  1152   0.361E-02-0.951E-05
CGA:   3    -0.148415725507E+03   -0.10026E-02   -0.10028E-02  1152   0.698E-03 0.353E-05
CGA:   4    -0.148415901212E+03   -0.17570E-03   -0.17575E-03  1152   0.148E-03 0.490E-06
[...]
SDA:   1    -0.148445670425E+03    0.63710E-04    0.00000E+00  1152   0.163E-03 0.000E+00
CGA:   2    -0.148445722826E+03   -0.52401E-04   -0.52427E-04  1152   0.387E-04-0.165E-05
CGA:   3    -0.148445733716E+03   -0.10890E-04   -0.10889E-04  1152   0.660E-05-0.545E-07
CGA:   4    -0.148445735293E+03   -0.15770E-05   -0.15876E-05  1152   0.130E-05 0.162E-06
CGA:   5    -0.148445735657E+03   -0.36373E-06   -0.36540E-06  1152   0.259E-06 0.645E-07
CGA:   6    -0.148445735763E+03   -0.10649E-06   -0.10909E-06  1152   0.105E-06-0.283E-07
CGA:   7    -0.148445735790E+03   -0.27281E-07   -0.27499E-07  1152   0.265E-07 0.135E-07
CGA:   8    -0.148445735795E+03   -0.51543E-08   -0.62240E-08  1152   0.888E-08 0.125E-07
 222 F= -.14844574E+03 E0= -.14844574E+03  d E =-.104904E-04
       N       E                     dE             d eps       ncg     rms          ort
SDA:   1    -0.148445659245E+03    0.76545E-04    0.00000E+00  1152   0.209E-03 0.000E+00
CGA:   2    -0.148445727443E+03   -0.68198E-04   -0.68236E-04  1152   0.522E-04-0.125E-05
CGA:   3    -0.148445741794E+03   -0.14351E-04   -0.14352E-04  1152   0.893E-05 0.787E-07
CGA:   4    -0.148445743932E+03   -0.21380E-05   -0.21472E-05  1152   0.173E-05 0.166E-06
CGA:   5    -0.148445744422E+03   -0.48996E-06   -0.49124E-06  1152   0.341E-06 0.925E-07
CGA:   6    -0.148445744552E+03   -0.13025E-06   -0.13094E-06  1152   0.123E-06-0.109E-07
CGA:   7    -0.148445744591E+03   -0.39252E-07   -0.39024E-07  1152   0.336E-07 0.837E-08
CGA:   8    -0.148445744600E+03   -0.88276E-08   -0.92694E-08  1152   0.887E-08 0.118E-07
 223 F= -.14844574E+03 E0= -.14844574E+03  d E =-.880442E-05
       N       E                     dE             d eps       ncg     rms          ort
SDA:   1    -0.148444992604E+03    0.75199E-03    0.00000E+00  1152   0.188E-02 0.000E+00
CGA:   2    -0.148445603799E+03   -0.61120E-03   -0.61131E-03  1152   0.467E-03-0.366E-05
CGA:   3    -0.148445733155E+03   -0.12936E-03   -0.12936E-03  1152   0.804E-04 0.210E-06
CGA:   4    -0.148445752689E+03   -0.19534E-04   -0.19559E-04  1152   0.158E-04 0.495E-06
CGA:   5    -0.148445757238E+03   -0.45492E-05   -0.45506E-05  1152   0.320E-05 0.280E-06
CGA:   6    -0.148445758374E+03   -0.11359E-05   -0.11382E-05  1152   0.104E-05-0.390E-07
CGA:   7    -0.148445758736E+03   -0.36128E-06   -0.35992E-06  1152   0.308E-06 0.222E-07
CGA:   8    -0.148445758840E+03   -0.10488E-06   -0.10336E-06  1152   0.685E-07 0.440E-07
 224 F= -.14844576E+03 E0= -.14844576E+03  d E =-.230450E-04
       N       E                     dE             d eps       ncg     rms          ort
SDA:   1    -0.148445665818E+03    0.92918E-04    0.00000E+00  1152   0.230E-03 0.000E+00
CGA:   2    -0.148445740799E+03   -0.74981E-04   -0.75010E-04  1152   0.575E-04-0.128E-05
CGA:   3    -0.148445756616E+03   -0.15817E-04   -0.15819E-04  1152   0.980E-05 0.760E-07
CGA:   4    -0.148445758985E+03   -0.23687E-05   -0.23790E-05  1152   0.186E-05 0.173E-06
CGA:   5    -0.148445759518E+03   -0.53386E-06   -0.53524E-06  1152   0.375E-06 0.929E-07
CGA:   6    -0.148445759662E+03   -0.14343E-06   -0.14454E-06  1152   0.136E-06-0.125E-07
CGA:   7    -0.148445759705E+03   -0.43360E-07   -0.43243E-07  1152   0.372E-07 0.919E-08
CGA:   8    -0.148445759716E+03   -0.10305E-07   -0.10778E-07  1152   0.948E-08 0.118E-07
 225 F= -.14844576E+03 E0= -.14844576E+03  d E =-.239201E-04
       N       E                     dE             d eps       ncg     rms          ort
SDA:   1    -0.148445675198E+03    0.84507E-04    0.00000E+00  1152   0.240E-03 0.000E+00
CGA:   2    -0.148445750742E+03   -0.75543E-04   -0.75549E-04  1152   0.561E-04-0.431E-06
CGA:   3    -0.148445766229E+03   -0.15488E-04   -0.15491E-04  1152   0.987E-05 0.131E-06
CGA:   4    -0.148445768598E+03   -0.23688E-05   -0.23732E-05  1152   0.192E-05 0.725E-07
CGA:   5    -0.148445769133E+03   -0.53469E-06   -0.53629E-06  1152   0.363E-06 0.890E-07
CGA:   6    -0.148445769266E+03   -0.13326E-06   -0.13340E-06  1152   0.119E-06-0.224E-08
CGA:   7    -0.148445769308E+03   -0.41739E-07   -0.41880E-07  1152   0.355E-07 0.213E-08
CGA:   8    -0.148445769318E+03   -0.99881E-08   -0.10315E-07  1152   0.807E-08 0.905E-08
 226 F= -.14844577E+03 E0= -.14844577E+03  d E =-.960227E-05
       N       E                     dE             d eps       ncg     rms          ort
SDA:   1    -0.148444943370E+03    0.82594E-03    0.00000E+00  1152   0.216E-02 0.000E+00
CGA:   2    -0.148445622340E+03   -0.67897E-03   -0.67898E-03  1152   0.504E-03-0.115E-05
CGA:   3    -0.148445762026E+03   -0.13969E-03   -0.13969E-03  1152   0.890E-04 0.376E-06
CGA:   4    -0.148445783453E+03   -0.21427E-04   -0.21441E-04  1152   0.174E-04 0.217E-06
CGA:   5    -0.148445788420E+03   -0.49663E-05   -0.49700E-05  1152   0.341E-05 0.273E-06
CGA:   6    -0.148445789604E+03   -0.11842E-05   -0.11847E-05  1152   0.104E-05-0.130E-07
CGA:   7    -0.148445789977E+03   -0.37325E-06   -0.37270E-06  1152   0.317E-06 0.692E-08
CGA:   8    -0.148445790086E+03   -0.10905E-06   -0.10786E-06  1152   0.690E-07 0.343E-07
 227 F= -.14844579E+03 E0= -.14844579E+03  d E =-.303706E-04
       N       E                     dE             d eps       ncg     rms          ort
SDA:   1    -0.148442408718E+03    0.33813E-02    0.00000E+00  1152   0.864E-02 0.000E+00
CGA:   2    -0.148445124202E+03   -0.27155E-02   -0.27155E-02  1152   0.201E-02-0.167E-05
CGA:   3    -0.148445683261E+03   -0.55906E-03   -0.55908E-03  1152   0.356E-03 0.662E-06
CGA:   4    -0.148445769031E+03   -0.85770E-04   -0.85799E-04  1152   0.698E-04 0.427E-06
CGA:   5    -0.148445789015E+03   -0.19984E-04   -0.19994E-04  1152   0.138E-04 0.538E-06
CGA:   6    -0.148445793742E+03   -0.47270E-05   -0.47280E-05  1152   0.414E-05-0.255E-07
CGA:   7    -0.148445795236E+03   -0.14940E-05   -0.14934E-05  1152   0.127E-05 0.138E-07
CGA:   8    -0.148445795697E+03   -0.46072E-06   -0.45734E-06  1152   0.289E-06 0.684E-07
 228 F= -.14844580E+03 E0= -.14844580E+03  d E =-.359812E-04
       N       E                     dE             d eps       ncg     rms          ort
SDA:   1    -0.148445407915E+03    0.38732E-03    0.00000E+00  1152   0.998E-03 0.000E+00
CGA:   2    -0.148445721354E+03   -0.31344E-03   -0.31344E-03  1152   0.232E-03 0.853E-06
CGA:   3    -0.148445786081E+03   -0.64727E-04   -0.64717E-04  1152   0.416E-04-0.276E-06
CGA:   4    -0.148445796056E+03   -0.99749E-05   -0.99645E-05  1152   0.830E-05-0.141E-06
CGA:   5    -0.148445798479E+03   -0.24236E-05   -0.24206E-05  1152   0.167E-05-0.185E-06
CGA:   6    -0.148445799016E+03   -0.53684E-06   -0.53666E-06  1152   0.457E-06 0.132E-07
CGA:   7    -0.148445799184E+03   -0.16786E-06   -0.16785E-06  1152   0.143E-06-0.108E-08
CGA:   8    -0.148445799245E+03   -0.60698E-07   -0.64615E-07  1152   0.523E-07-0.286E-07
 229 F= -.14844580E+03 E0= -.14844580E+03  d E =-.395292E-04
       N       E                     dE             d eps       ncg     rms          ort
SDA:   1    -0.148445649635E+03    0.14955E-03    0.00000E+00  1152   0.405E-03 0.000E+00
CGA:   2    -0.148445779385E+03   -0.12975E-03   -0.12975E-03  1152   0.956E-04-0.123E-05
CGA:   3    -0.148445805773E+03   -0.26388E-04   -0.26394E-04  1152   0.160E-04 0.149E-06
CGA:   4    -0.148445809633E+03   -0.38597E-05   -0.38687E-05  1152   0.320E-05 0.120E-06
CGA:   5    -0.148445810528E+03   -0.89467E-06   -0.89728E-06  1152   0.606E-06 0.750E-07
CGA:   6    -0.148445810745E+03   -0.21741E-06   -0.21835E-06  1152   0.190E-06-0.214E-07
CGA:   7    -0.148445810808E+03   -0.62920E-07   -0.62828E-07  1152   0.518E-07 0.680E-08
CGA:   8    -0.148445810824E+03   -0.15700E-07   -0.15906E-07  1152   0.119E-07 0.123E-07
 230 F= -.14844581E+03 E0= -.14844581E+03  d E =-.115788E-04
       N       E                     dE             d eps       ncg     rms          ort
SDA:   1    -0.148444382066E+03    0.14287E-02    0.00000E+00  1152   0.364E-02 0.000E+00
CGA:   2    -0.148445547770E+03   -0.11657E-02   -0.11657E-02  1152   0.857E-03-0.352E-05
CGA:   3    -0.148445785475E+03   -0.23770E-03   -0.23772E-03  1152   0.144E-03 0.428E-06
CGA:   4    -0.148445820387E+03   -0.34913E-04   -0.34938E-04  1152   0.287E-04 0.361E-06
CGA:   5    -0.148445828515E+03   -0.81279E-05   -0.81339E-05  1152   0.559E-05 0.227E-06
CGA:   6    -0.148445830434E+03   -0.19187E-05   -0.19209E-05  1152   0.163E-05-0.609E-07
CGA:   7    -0.148445831016E+03   -0.58172E-06   -0.58068E-06  1152   0.485E-06 0.198E-07
CGA:   8    -0.148445831188E+03   -0.17231E-06   -0.17081E-06  1152   0.109E-06 0.439E-07
 231 F= -.14844583E+03 E0= -.14844583E+03  d E =-.319433E-04
       N       E                     dE             d eps       ncg     rms          ort
SDA:   1    -0.148445497302E+03    0.33371E-03    0.00000E+00  1152   0.844E-03 0.000E+00
CGA:   2    -0.148445767764E+03   -0.27046E-03   -0.27047E-03  1152   0.199E-03-0.176E-05
CGA:   3    -0.148445822850E+03   -0.55086E-04   -0.55094E-04  1152   0.333E-04 0.215E-06
CGA:   4    -0.148445830927E+03   -0.80774E-05   -0.80902E-05  1152   0.655E-05 0.177E-06
CGA:   5    -0.148445832778E+03   -0.18514E-05   -0.18546E-05  1152   0.128E-05 0.106E-06
CGA:   6    -0.148445833229E+03   -0.45106E-06   -0.45217E-06  1152   0.393E-06-0.289E-07
CGA:   7    -0.148445833365E+03   -0.13506E-06   -0.13460E-06  1152   0.112E-06 0.106E-07
CGA:   8    -0.148445833401E+03   -0.36890E-07   -0.36659E-07  1152   0.249E-07 0.197E-07
 232 F= -.14844583E+03 E0= -.14844583E+03  d E =-.341567E-04
       N       E                     dE             d eps       ncg     rms          ort
SDA:   1    -0.148445388965E+03    0.44440E-03    0.00000E+00  1152   0.115E-02 0.000E+00
CGA:   2    -0.148445759338E+03   -0.37037E-03   -0.37039E-03  1152   0.278E-03-0.273E-05
CGA:   3    -0.148445834539E+03   -0.75201E-04   -0.75209E-04  1152   0.477E-04 0.175E-06
CGA:   4    -0.148445846055E+03   -0.11516E-04   -0.11541E-04  1152   0.912E-05 0.340E-06
CGA:   5    -0.148445848716E+03   -0.26616E-05   -0.26628E-05  1152   0.183E-05 0.613E-07
CGA:   6    -0.148445849355E+03   -0.63866E-06   -0.64023E-06  1152   0.558E-06-0.390E-07
CGA:   7    -0.148445849545E+03   -0.18957E-06   -0.18888E-06  1152   0.158E-06 0.241E-07
CGA:   8    -0.148445849598E+03   -0.53072E-07   -0.52794E-07  1152   0.355E-07 0.269E-07
 233 F= -.14844585E+03 E0= -.14844585E+03  d E =-.161963E-04
       N       E                     dE             d eps       ncg     rms          ort
SDA:   1    -0.148445046401E+03    0.80314E-03    0.00000E+00  1152   0.202E-02 0.000E+00
CGA:   2    -0.148445698101E+03   -0.65170E-03   -0.65172E-03  1152   0.488E-03-0.357E-05
CGA:   3    -0.148445830538E+03   -0.13244E-03   -0.13245E-03  1152   0.840E-04 0.225E-06
CGA:   4    -0.148445850861E+03   -0.20323E-04   -0.20355E-04  1152   0.161E-04 0.451E-06
CGA:   5    -0.148445855555E+03   -0.46941E-05   -0.46957E-05  1152   0.322E-05 0.806E-07
CGA:   6    -0.148445856674E+03   -0.11192E-05   -0.11212E-05  1152   0.973E-06-0.522E-07
CGA:   7    -0.148445857012E+03   -0.33753E-06   -0.33618E-06  1152   0.282E-06 0.316E-07
CGA:   8    -0.148445857109E+03   -0.97260E-07   -0.96730E-07  1152   0.632E-07 0.375E-07
 234 F= -.14844586E+03 E0= -.14844586E+03  d E =-.237075E-04
       N       E                     dE             d eps       ncg     rms          ort
SDA:   1    -0.148445583114E+03    0.27390E-03    0.00000E+00  1152   0.697E-03 0.000E+00
CGA:   2    -0.148445815951E+03   -0.23284E-03   -0.23285E-03  1152   0.172E-03-0.984E-06
CGA:   3    -0.148445861469E+03   -0.45518E-04   -0.45518E-04  1152   0.295E-04 0.182E-08
CGA:   4    -0.148445868624E+03   -0.71553E-05   -0.71728E-05  1152   0.539E-05 0.240E-06
CGA:   5    -0.148445870224E+03   -0.15999E-05   -0.16000E-05  1152   0.110E-05 0.135E-07
CGA:   6    -0.148445870604E+03   -0.37978E-06   -0.38053E-06  1152   0.335E-06-0.230E-07
CGA:   7    -0.148445870714E+03   -0.11026E-06   -0.10975E-06  1152   0.891E-07 0.232E-07
CGA:   8    -0.148445870746E+03   -0.31812E-07   -0.31741E-07  1152   0.212E-07 0.147E-07
 235 F= -.14844587E+03 E0= -.14844587E+03  d E =-.136369E-04
       N       E                     dE             d eps       ncg     rms          ort
SDA:   1    -0.148443306217E+03    0.25645E-02    0.00000E+00  1152   0.627E-02 0.000E+00
CGA:   2    -0.148445399504E+03   -0.20933E-02   -0.20933E-02  1152   0.155E-02-0.278E-05
CGA:   3    -0.148445808868E+03   -0.40936E-03   -0.40937E-03  1152   0.266E-03 0.165E-08
CGA:   4    -0.148445873599E+03   -0.64731E-04   -0.64782E-04  1152   0.493E-04 0.702E-06
CGA:   5    -0.148445888063E+03   -0.14464E-04   -0.14464E-04  1152   0.991E-05 0.350E-07
CGA:   6    -0.148445891420E+03   -0.33571E-05   -0.33586E-05  1152   0.292E-05-0.655E-07
CGA:   7    -0.148445892449E+03   -0.10288E-05   -0.10260E-05  1152   0.843E-06 0.723E-07
CGA:   8    -0.148445892766E+03   -0.31697E-06   -0.31482E-06  1152   0.200E-06 0.470E-07
 236 F= -.14844589E+03 E0= -.14844589E+03  d E =-.356567E-04
       N       E                     dE             d eps       ncg     rms          ort
SDA:   1    -0.148445691048E+03    0.20140E-03    0.00000E+00  1152   0.491E-03 0.000E+00
CGA:   2    -0.148445855179E+03   -0.16413E-03   -0.16414E-03  1152   0.122E-03-0.799E-06
CGA:   3    -0.148445887304E+03   -0.32125E-04   -0.32125E-04  1152   0.207E-04 0.168E-08
CGA:   4    -0.148445892338E+03   -0.50342E-05   -0.50492E-05  1152   0.375E-05 0.197E-06
CGA:   5    -0.148445893454E+03   -0.11154E-05   -0.11156E-05  1152   0.779E-06 0.970E-08
CGA:   6    -0.148445893723E+03   -0.26976E-06   -0.27031E-06  1152   0.241E-06-0.186E-07
CGA:   7    -0.148445893801E+03   -0.77969E-07   -0.77739E-07  1152   0.635E-07 0.188E-07
CGA:   8    -0.148445893823E+03   -0.22155E-07   -0.22154E-07  1152   0.152E-07 0.123E-07
 237 F= -.14844589E+03 E0= -.14844589E+03  d E =-.367145E-04
       N       E                     dE             d eps       ncg     rms          ort
SDA:   1    -0.148444926179E+03    0.96762E-03    0.00000E+00  1152   0.236E-02 0.000E+00
CGA:   2    -0.148445732749E+03   -0.80657E-03   -0.80649E-03  1152   0.574E-03 0.473E-05
CGA:   3    -0.148445883224E+03   -0.15047E-03   -0.15045E-03  1152   0.101E-03-0.363E-06
CGA:   4    -0.148445907820E+03   -0.24597E-04   -0.24562E-04  1152   0.183E-04-0.440E-06
CGA:   5    -0.148445913085E+03   -0.52644E-05   -0.52624E-05  1152   0.361E-05-0.738E-07
CGA:   6    -0.148445914282E+03   -0.11969E-05   -0.11973E-05  1152   0.995E-06-0.162E-07
CGA:   7    -0.148445914655E+03   -0.37386E-06   -0.37533E-06  1152   0.315E-06-0.232E-07
CGA:   8    -0.148445914776E+03   -0.12082E-06   -0.12267E-06  1152   0.831E-07-0.209E-07
 238 F= -.14844591E+03 E0= -.14844591E+03  d E =-.209528E-04
       N       E                     dE             d eps       ncg     rms          ort
SDA:   1    -0.148444322571E+03    0.15921E-02    0.00000E+00  1152   0.383E-02 0.000E+00
CGA:   2    -0.148445630213E+03   -0.13076E-02   -0.13076E-02  1152   0.931E-03 0.603E-05
CGA:   3    -0.148445873920E+03   -0.24371E-03   -0.24368E-03  1152   0.163E-03-0.460E-06
CGA:   4    -0.148445913683E+03   -0.39763E-04   -0.39718E-04  1152   0.295E-04-0.556E-06
CGA:   5    -0.148445922194E+03   -0.85107E-05   -0.85077E-05  1152   0.585E-05-0.945E-07
CGA:   6    -0.148445924133E+03   -0.19389E-05   -0.19392E-05  1152   0.161E-05-0.179E-07
CGA:   7    -0.148445924737E+03   -0.60417E-06   -0.60604E-06  1152   0.507E-06-0.286E-07
CGA:   8    -0.148445924932E+03   -0.19484E-06   -0.19660E-06  1152   0.132E-06-0.262E-07
 239 F= -.14844592E+03 E0= -.14844592E+03  d E =-.311085E-04
       N       E                     dE             d eps       ncg     rms          ort
SDA:   1    -0.148445287708E+03    0.63703E-03    0.00000E+00  1152   0.156E-02 0.000E+00
CGA:   2    -0.148445821712E+03   -0.53400E-03   -0.53394E-03  1152   0.384E-03 0.449E-05
CGA:   3    -0.148445921002E+03   -0.99291E-04   -0.99253E-04  1152   0.675E-04-0.534E-06
CGA:   4    -0.148445937580E+03   -0.16578E-04   -0.16545E-04  1152   0.120E-04-0.404E-06
CGA:   5    -0.148445941054E+03   -0.34739E-05   -0.34694E-05  1152   0.242E-05-0.144E-06
CGA:   6    -0.148445941830E+03   -0.77594E-06   -0.77592E-06  1152   0.645E-06 0.451E-08
CGA:   7    -0.148445942070E+03   -0.24008E-06   -0.24090E-06  1152   0.201E-06-0.110E-07
CGA:   8    -0.148445942151E+03   -0.81498E-07   -0.84122E-07  1152   0.607E-07-0.257E-07
 240 F= -.14844594E+03 E0= -.14844594E+03  d E =-.172195E-04
       N       E                     dE             d eps       ncg     rms          ort
SDA:   1    -0.148445103090E+03    0.83898E-03    0.00000E+00  1152   0.201E-02 0.000E+00
CGA:   2    -0.148445793843E+03   -0.69075E-03   -0.69068E-03  1152   0.497E-03 0.512E-05
CGA:   3    -0.148445922162E+03   -0.12832E-03   -0.12828E-03  1152   0.874E-04-0.608E-06
CGA:   4    -0.148445943575E+03   -0.21413E-04   -0.21376E-04  1152   0.155E-04-0.461E-06
CGA:   5    -0.148445948073E+03   -0.44985E-05   -0.44934E-05  1152   0.312E-05-0.163E-06
CGA:   6    -0.148445949075E+03   -0.10019E-05   -0.10019E-05  1152   0.830E-06 0.522E-08
CGA:   7    -0.148445949384E+03   -0.30887E-06   -0.30957E-06  1152   0.257E-06-0.124E-07
CGA:   8    -0.148445949488E+03   -0.10344E-06   -0.10638E-06  1152   0.751E-07-0.285E-07
 241 F= -.14844595E+03 E0= -.14844595E+03  d E =-.245556E-04
       N       E                     dE             d eps       ncg     rms          ort
SDA:   1    -0.148445549038E+03    0.40035E-03    0.00000E+00  1152   0.975E-03 0.000E+00
CGA:   2    -0.148445886359E+03   -0.33732E-03   -0.33731E-03  1152   0.244E-03 0.560E-06
CGA:   3    -0.148445948845E+03   -0.62486E-04   -0.62478E-04  1152   0.425E-04-0.118E-06
CGA:   4    -0.148445959271E+03   -0.10426E-04   -0.10417E-04  1152   0.759E-05-0.108E-06
CGA:   5    -0.148445961492E+03   -0.22213E-05   -0.22180E-05  1152   0.159E-05-0.110E-06
CGA:   6    -0.148445962017E+03   -0.52428E-06   -0.52494E-06  1152   0.447E-06-0.319E-07
CGA:   7    -0.148445962178E+03   -0.16135E-06   -0.16140E-06  1152   0.134E-06-0.991E-10
CGA:   8    -0.148445962231E+03   -0.52645E-07   -0.53068E-07  1152   0.356E-07-0.613E-08
 242 F= -.14844596E+03 E0= -.14844596E+03  d E =-.127429E-04
       N       E                     dE             d eps       ncg     rms          ort
SDA:   1    -0.148445430764E+03    0.53141E-03    0.00000E+00  1152   0.127E-02 0.000E+00
CGA:   2    -0.148445869045E+03   -0.43828E-03   -0.43827E-03  1152   0.317E-03 0.648E-06
CGA:   3    -0.148445950252E+03   -0.81207E-04   -0.81196E-04  1152   0.553E-04-0.137E-06
CGA:   4    -0.148445963811E+03   -0.13560E-04   -0.13550E-04  1152   0.988E-05-0.123E-06
CGA:   5    -0.148445966701E+03   -0.28894E-05   -0.28858E-05  1152   0.206E-05-0.126E-06
CGA:   6    -0.148445967381E+03   -0.68045E-06   -0.68109E-06  1152   0.578E-06-0.368E-07
CGA:   7    -0.148445967591E+03   -0.20970E-06   -0.20969E-06  1152   0.174E-06 0.436E-10
CGA:   8    -0.148445967659E+03   -0.67852E-07   -0.68147E-07  1152   0.452E-07-0.594E-08
 243 F= -.14844597E+03 E0= -.14844597E+03  d E =-.181711E-04
       N       E                     dE             d eps       ncg     rms          ort
SDA:   1    -0.148445367867E+03    0.59972E-03    0.00000E+00  1152   0.142E-02 0.000E+00
CGA:   2    -0.148445873901E+03   -0.50603E-03   -0.50604E-03  1152   0.354E-03-0.648E-07
CGA:   3    -0.148445962849E+03   -0.88948E-04   -0.88941E-04  1152   0.629E-04-0.102E-06
CGA:   4    -0.148445978154E+03   -0.15305E-04   -0.15318E-04  1152   0.106E-04 0.158E-06
CGA:   5    -0.148445981242E+03   -0.30875E-05   -0.30866E-05  1152   0.218E-05-0.283E-07
CGA:   6    -0.148445981951E+03   -0.70929E-06   -0.70943E-06  1152   0.597E-06-0.199E-07
CGA:   7    -0.148445982162E+03   -0.21111E-06   -0.21009E-06  1152   0.168E-06 0.256E-07
CGA:   8    -0.148445982227E+03   -0.65548E-07   -0.64908E-07  1152   0.421E-07 0.110E-07
 244 F= -.14844598E+03 E0= -.14844598E+03  d E =-.145688E-04
