
Lmod is automatically replacing "cce/11.0.4" with "gcc/10.2.0".


Lmod is automatically replacing "PrgEnv-cray/8.0.0" with "PrgEnv-gnu/8.0.0".


Lmod is automatically replacing "craype-network-ofi" with "craype-network-ucx".


Inactive Modules:
  1) cray-mpich


Lmod is automatically replacing "craype-network-ucx" with "craype-network-ofi".


Inactive Modules:
  1) cray-mpich-ucx/8.1.9

Activating Modules:
  1) cray-mpich/8.1.4

 ----------------------------------------------------
    OOO  PPPP  EEEEE N   N M   M PPPP
   O   O P   P E     NN  N MM MM P   P
   O   O PPPP  EEEEE N N N M M M PPPP   -- VERSION
   O   O P     E     N  NN M   M P
    OOO  P     EEEEE N   N M   M P
 ----------------------------------------------------
 running   64 mpi-ranks, with    1 threads/rank
 distrk:  each k-point on   32 cores,    2 groups
 distr:  one band on    4 cores,    8 groups
 vasp.6.3.1 04May22 (build May 25 2022 13:42:54) complex                         
 POSCAR found type information on POSCAR C H I N Sn
 POSCAR found :  5 types and      12 ions
 scaLAPACK will be used
 WARNING: PSMAXN for non-local potential too small
 LDA part: xc-table for Pade appr. of Perdew
 POSCAR, INCAR and KPOINTS ok, starting setup
 FFT: planning ... GRIDC
 FFT: planning ... GRID_SOFT
 FFT: planning ... GRID
 WAVECAR not read
 entering main loop
       N       E                     dE             d eps       ncg     rms          ort
DAV:   1     0.172337171224E+03    0.17234E+03   -0.22895E+04  1152   0.152E+03
DAV:   2    -0.128457042842E+03   -0.30079E+03   -0.29042E+03  1152   0.234E+02
DAV:   3    -0.160496089129E+03   -0.32039E+02   -0.31833E+02  1152   0.851E+01
DAV:   4    -0.161121982043E+03   -0.62589E+00   -0.62476E+00  1152   0.131E+01
DAV:   5    -0.161136792601E+03   -0.14811E-01   -0.14809E-01  1152   0.197E+00
 gam= 0.000 g(H,U,f)=  0.139E+02 0.248E+01 0.408E-01 ort(H,U,f) = 0.000E+00 0.000E+00 0.000E+00
SDA:   6    -0.144963845323E+03    0.16173E+02   -0.14809E-01  1152   0.164E+02 0.000E+00
 gam= 0.000 trial= 0.400  step= 0.342 mean= 0.400
 gam= 0.072 g(H,U,f)=  0.905E+00 0.270E+00 0.292E-16 ort(H,U,f) =-0.454E+00 0.733E+00-0.440E-16
CGA:   7    -0.147749160646E+03   -0.27853E+01   -0.27995E+01  1152   0.118E+01 0.279E+00
 gam= 0.072 trial= 0.397  step= 0.624 mean= 0.397
 gam= 0.323 g(H,U,f)=  0.303E+00 0.770E-01 0.940E-12 ort(H,U,f) =-0.157E+00 0.164E+00 0.497E-12
CGA:   8    -0.148123417206E+03   -0.37426E+00   -0.37290E+00  1152   0.380E+00 0.768E-02
 gam= 0.323 trial= 0.408  step= 0.616 mean= 0.408
 gam= 0.314 g(H,U,f)=  0.991E-01 0.201E-01 0.924E-18 ort(H,U,f) =-0.633E-01 0.637E-01 0.117E-17
CGA:   9    -0.148241242963E+03   -0.11783E+00   -0.11779E+00  1152   0.119E+00 0.446E-03
 gam= 0.314 trial= 0.419  step= 0.614 mean= 0.419
 gam= 0.273 g(H,U,f)=  0.285E-01 0.394E-02-0.999E-26 ort(H,U,f) =-0.173E-01 0.173E-01-0.203E-25
CGA:  10    -0.148277851026E+03   -0.36608E-01   -0.36611E-01  1152   0.325E-01-0.452E-04
 gam= 0.273 trial= 0.429  step= 0.712 mean= 0.429
 gam= 0.274 g(H,U,f)=  0.840E-02 0.514E-03 0.605E-18 ort(H,U,f) =-0.290E-02 0.280E-02 0.151E-17
CGA:  11    -0.148289401146E+03   -0.11550E-01   -0.11563E-01  1152   0.892E-02-0.100E-03
 gam= 0.274 trial= 0.443  step= 0.635 mean= 0.443
 gam= 0.197 g(H,U,f)=  0.167E-02 0.875E-04 0.108E-13 ort(H,U,f) =-0.370E-03 0.358E-03 0.281E-13
CGA:  12    -0.148292220149E+03   -0.28190E-02   -0.28204E-02  1152   0.176E-02-0.117E-04
 gam= 0.197 trial= 0.452  step= 0.720 mean= 0.452
 gam= 0.235 g(H,U,f)=  0.391E-03 0.226E-04 0.248E-18 ort(H,U,f) =-0.585E-04 0.494E-04 0.393E-18
CGA:  13    -0.148292851638E+03   -0.63149E-03   -0.63274E-03  1152   0.413E-03-0.908E-05
 gam= 0.235 trial= 0.466  step= 0.719 mean= 0.466
 gam= 0.211 g(H,U,f)=  0.814E-04 0.587E-05 0.655E-14 ort(H,U,f) =-0.140E-04 0.127E-04 0.216E-13
CGA:  14    -0.148292999419E+03   -0.14778E-03   -0.14794E-03  1152   0.872E-04-0.124E-05
 gam= 0.211 trial= 0.478  step= 0.764 mean= 0.478
 gam= 0.236 g(H,U,f)=  0.190E-04 0.162E-05 0.748E-17 ort(H,U,f) =-0.237E-05 0.406E-05 0.282E-16
CGA:  15    -0.148293032864E+03   -0.33445E-04   -0.33204E-04  1152   0.206E-04 0.169E-05
 gam= 0.236 trial= 0.493  step= 0.821 mean= 0.493
 gam= 0.247 g(H,U,f)=  0.467E-05 0.402E-06 0.224E-20 ort(H,U,f) =-0.920E-06 0.112E-05 0.100E-19
CGA:  16    -0.148293041507E+03   -0.86428E-05   -0.86088E-05  1152   0.508E-05 0.205E-06
 gam= 0.247 trial= 0.509  step= 0.827 mean= 0.509
 gam= 0.219 g(H,U,f)=  0.106E-05 0.471E-07 0.672E-32 ort(H,U,f) =-0.130E-06 0.172E-06 0.000E+00
CGA:  17    -0.148293043634E+03   -0.21268E-05   -0.21199E-05  1152   0.111E-05 0.425E-07
 gam= 0.219 trial= 0.525  step= 0.702 mean= 0.525
 final diagonalization
   1 F= -.14829304E+03 E0= -.14829304E+03  d E =-.148293E+03
 curvature:   0.00 expect dE= 0.000E+00 dE for cont linesearch  0.000E+00
 trial: gam= 0.00000 g(F)=  0.279E-02 g(S)=  0.181E-01 ort = 0.000E+00 (trialstep = 0.100E+01)
 search vector abs. value=  0.209E-01
 bond charge predicted
 wavefunctions rotated
       N       E                     dE             d eps       ncg     rms          ort
 gam= 0.000 g(H,U,f)=  0.163E+00 0.229E-02 0.569E-44 ort(H,U,f) = 0.000E+00 0.000E+00 0.000E+00
SDA:   1    -0.148244250974E+03    0.48791E-01    0.00000E+00  1152   0.166E+00 0.000E+00
 gam= 0.000 trial= 0.534  step= 0.590 mean= 0.534
 gam= 0.162 g(H,U,f)=  0.251E-01 0.165E-02-0.193E-27 ort(H,U,f) =-0.128E-02 0.962E-03-0.248E-28
CGA:   2    -0.148293117186E+03   -0.48866E-01   -0.48873E-01  1152   0.268E-01-0.318E-03
 gam= 0.162 trial= 0.537  step= 0.620 mean= 0.537
 gam= 0.232 g(H,U,f)=  0.558E-02 0.626E-03-0.582E-27 ort(H,U,f) =-0.102E-02 0.104E-02-0.782E-27
CGA:   3    -0.148301400400E+03   -0.82832E-02   -0.82826E-02  1152   0.621E-02 0.179E-04
 gam= 0.232 trial= 0.541  step= 0.561 mean= 0.541
 gam= 0.238 g(H,U,f)=  0.121E-02 0.265E-03 0.238E-19 ort(H,U,f) =-0.515E-03 0.550E-03 0.555E-19
CGA:   4    -0.148303142726E+03   -0.17423E-02   -0.17420E-02  1152   0.148E-02 0.344E-04
 gam= 0.238 trial= 0.542  step= 0.643 mean= 0.542
 gam= 0.319 g(H,U,f)=  0.394E-03 0.773E-04 0.645E-19 ort(H,U,f) =-0.202E-03 0.211E-03 0.151E-18
CGA:   5    -0.148303621425E+03   -0.47870E-03   -0.47824E-03  1152   0.471E-03 0.923E-05
 gam= 0.319 trial= 0.547  step= 0.691 mean= 0.547
 gam= 0.281 g(H,U,f)=  0.119E-03 0.136E-04 0.109E-18 ort(H,U,f) =-0.513E-04 0.561E-04 0.314E-18
CGA:   6    -0.148303785758E+03   -0.16433E-03   -0.16399E-03  1152   0.132E-03 0.473E-05
 gam= 0.281 trial= 0.554  step= 0.669 mean= 0.554
 gam= 0.237 g(H,U,f)=  0.287E-04 0.278E-05 0.597E-19 ort(H,U,f) =-0.682E-05 0.112E-04 0.244E-18
CGA:   7    -0.148303830772E+03   -0.45014E-04   -0.44762E-04  1152   0.314E-04 0.440E-05
 gam= 0.237 trial= 0.560  step= 0.682 mean= 0.560
 gam= 0.207 g(H,U,f)=  0.601E-05 0.509E-06 0.158E-19 ort(H,U,f) =-0.794E-06 0.180E-05 0.750E-19
CGA:   8    -0.148303841912E+03   -0.11140E-04   -0.11078E-04  1152   0.652E-05 0.101E-05
 gam= 0.207 trial= 0.566  step= 0.779 mean= 0.566
 gam= 0.262 g(H,U,f)=  0.158E-05 0.126E-06 0.288E-20 ort(H,U,f) =-0.720E-06 0.331E-06 0.148E-19
CGA:   9    -0.148303844491E+03   -0.25786E-05   -0.26201E-05  1152   0.171E-05-0.389E-06
 gam= 0.262 trial= 0.577  step= 0.792 mean= 0.577
 final diagonalization
   2 F= -.14830384E+03 E0= -.14830384E+03  d E =-.108009E-01
 trial-energy change:   -0.010801  1 .order   -0.010888   -0.020910   -0.000867
 step:   1.0445(harm=  1.0432)  dis= 0.00584  next Energy=  -148.303864 (dE=-0.108E-01)
 bond charge predicted
 wavefunctions rotated
       N       E                     dE             d eps       ncg     rms          ort
 gam= 0.000 g(H,U,f)=  0.323E-03 0.490E-05 0.150E-21 ort(H,U,f) = 0.000E+00 0.000E+00 0.000E+00
SDA:   1    -0.148303741747E+03    0.10016E-03    0.00000E+00  1152   0.327E-03 0.000E+00
 gam= 0.000 trial= 0.587  step= 0.624 mean= 0.587
 gam= 0.187 g(H,U,f)=  0.577E-04 0.356E-05 0.221E-19 ort(H,U,f) =-0.217E-04 0.200E-05 0.177E-20
CGA:   2    -0.148303843569E+03   -0.10182E-03   -0.10218E-03  1152   0.612E-04-0.197E-04
 gam= 0.187 trial= 0.589  step= 0.568 mean= 0.589
 gam= 0.208 g(H,U,f)=  0.114E-04 0.134E-05 0.132E-19 ort(H,U,f) =-0.683E-06 0.230E-05 0.182E-19
CGA:   3    -0.148303859892E+03   -0.16323E-04   -0.16340E-04  1152   0.128E-04 0.161E-05
 gam= 0.208 trial= 0.588  step= 0.479 mean= 0.588
 gam= 0.214 g(H,U,f)=  0.213E-05 0.604E-06 0.556E-20 ort(H,U,f) = 0.448E-06 0.121E-05 0.117E-19
CGA:   4    -0.148303862938E+03   -0.30457E-05   -0.31362E-05  1152   0.273E-05 0.166E-05
 gam= 0.214 trial= 0.583  step= 0.575 mean= 0.583
 gam= 0.310 g(H,U,f)=  0.608E-06 0.239E-06 0.276E-20 ort(H,U,f) =-0.764E-07 0.536E-06 0.594E-20
CGA:   5    -0.148303863823E+03   -0.88506E-06   -0.88690E-06  1152   0.847E-06 0.460E-06
 gam= 0.310 trial= 0.582  step= 0.705 mean= 0.582
 gam= 0.328 g(H,U,f)=  0.231E-06 0.470E-07 0.126E-20 ort(H,U,f) =-0.433E-07 0.172E-06 0.324E-20
CGA:   6    -0.148303864180E+03   -0.35688E-06   -0.34891E-06  1152   0.278E-06 0.128E-06
 gam= 0.328 trial= 0.588  step= 0.449 mean= 0.588
 gam= 0.285 g(H,U,f)=  0.626E-07 0.166E-07 0.552E-21 ort(H,U,f) = 0.622E-07 0.591E-07 0.157E-20
CGA:   7    -0.148303864243E+03   -0.63459E-07   -0.71843E-07  1152   0.791E-07 0.121E-06
 gam= 0.285 trial= 0.581  step= 0.328 mean= 0.581
 gam= 0.000 g(H,U,f)=  0.229E-07 0.905E-08 0.294E-21 ort(H,U,f) = 0.356E-07 0.242E-07 0.738E-21
CGA:   8    -0.148303864254E+03   -0.11084E-07   -0.18624E-07  1152   0.319E-07 0.598E-07
 gam= 0.000 trial= 0.569  step= 0.580 mean= 0.569
 final diagonalization
   3 F= -.14830386E+03 E0= -.14830386E+03  d E =-.108206E-01
 curvature:  -0.52 expect dE=-0.139E-01 dE for cont linesearch -0.108E-09
 trial: gam= 1.27172 g(F)=  0.237E-01 g(S)=  0.293E-02 ort = 0.208E-05 (trialstep = 0.349E+00)
 search vector abs. value=  0.604E-01
 bond charge predicted
 wavefunctions rotated
       N       E                     dE             d eps       ncg     rms          ort
 gam= 0.000 g(H,U,f)=  0.116E+00 0.148E-02 0.113E-17 ort(H,U,f) = 0.000E+00 0.000E+00 0.000E+00
SDA:   1    -0.148268103561E+03    0.35761E-01    0.00000E+00  1152   0.118E+00 0.000E+00
 gam= 0.000 trial= 0.569  step= 0.564 mean= 0.569
 gam= 0.232 g(H,U,f)=  0.267E-01 0.699E-03 0.521E-17 ort(H,U,f) = 0.376E-03-0.443E-03 0.634E-17
CGA:   2    -0.148301382050E+03   -0.33278E-01   -0.33279E-01  1152   0.274E-01-0.671E-04
 gam= 0.232 trial= 0.569  step= 0.574 mean= 0.569
 gam= 0.216 g(H,U,f)=  0.566E-02 0.264E-03 0.316E-17 ort(H,U,f) =-0.214E-03 0.201E-03 0.240E-17
CGA:   3    -0.148309226858E+03   -0.78448E-02   -0.78449E-02  1152   0.592E-02-0.132E-04
 gam= 0.216 trial= 0.569  step= 0.528 mean= 0.569
 gam= 0.182 g(H,U,f)=  0.984E-03 0.933E-04 0.149E-17 ort(H,U,f) =-0.158E-03 0.180E-03 0.344E-17
CGA:   4    -0.148310787859E+03   -0.15610E-02   -0.15615E-02  1152   0.108E-02 0.218E-04
 gam= 0.182 trial= 0.567  step= 0.572 mean= 0.567
 gam= 0.252 g(H,U,f)=  0.230E-03 0.419E-04 0.541E-18 ort(H,U,f) =-0.726E-04 0.829E-04 0.132E-17
CGA:   5    -0.148311096970E+03   -0.30911E-03   -0.30909E-03  1152   0.272E-03 0.103E-04
 gam= 0.252 trial= 0.567  step= 0.672 mean= 0.567
 gam= 0.295 g(H,U,f)=  0.686E-04 0.116E-04 0.338E-18 ort(H,U,f) =-0.321E-04 0.323E-04 0.671E-18
CGA:   6    -0.148311189104E+03   -0.92133E-04   -0.92126E-04  1152   0.802E-04 0.151E-06
 gam= 0.295 trial= 0.573  step= 0.767 mean= 0.573
 gam= 0.302 g(H,U,f)=  0.223E-04 0.195E-05 0.112E-18 ort(H,U,f) =-0.794E-05 0.821E-05 0.330E-18
CGA:   7    -0.148311219914E+03   -0.30810E-04   -0.30784E-04  1152   0.242E-04 0.269E-06
 gam= 0.302 trial= 0.582  step= 0.717 mean= 0.582
 gam= 0.222 g(H,U,f)=  0.517E-05 0.216E-06 0.165E-19 ort(H,U,f) =-0.291E-06 0.133E-05 0.840E-19
CGA:   8    -0.148311228708E+03   -0.87942E-05   -0.87241E-05  1152   0.539E-05 0.104E-05
 gam= 0.222 trial= 0.589  step= 0.735 mean= 0.589
 gam= 0.223 g(H,U,f)=  0.116E-05 0.398E-07 0.192E-20 ort(H,U,f) =-0.197E-06 0.139E-06 0.119E-19
CGA:   9    -0.148311230770E+03   -0.20613E-05   -0.20658E-05  1152   0.120E-05-0.587E-07
 gam= 0.223 trial= 0.596  step= 0.820 mean= 0.596
 final diagonalization
   4 F= -.14831123E+03 E0= -.14831123E+03  d E =-.736652E-02
 trial-energy change:   -0.007367  1 .order   -0.007370   -0.009287   -0.005452
 step:   0.8456(harm=  0.8456)  dis= 0.01033  next Energy=  -148.315110 (dE=-0.112E-01)
 bond charge predicted
 wavefunctions rotated
       N       E                     dE             d eps       ncg     rms          ort
 gam= 0.000 g(H,U,f)=  0.235E+00 0.298E-02 0.226E-17 ort(H,U,f) = 0.000E+00 0.000E+00 0.000E+00
SDA:   1    -0.148228142811E+03    0.83086E-01    0.00000E+00  1152   0.238E+00 0.000E+00
 gam= 0.000 trial= 0.608  step= 0.564 mean= 0.608
 gam= 0.233 g(H,U,f)=  0.539E-01 0.138E-02 0.269E-16 ort(H,U,f) = 0.911E-03-0.891E-03 0.338E-16
CGA:   2    -0.148295165314E+03   -0.67023E-01   -0.67029E-01  1152   0.553E-01 0.195E-04
 gam= 0.233 trial= 0.605  step= 0.573 mean= 0.605
 gam= 0.218 g(H,U,f)=  0.115E-01 0.529E-03 0.937E-17 ort(H,U,f) =-0.429E-03 0.399E-03 0.706E-17
CGA:   3    -0.148311025094E+03   -0.15860E-01   -0.15859E-01  1152   0.120E-01-0.294E-04
 gam= 0.218 trial= 0.604  step= 0.527 mean= 0.604
 gam= 0.183 g(H,U,f)=  0.201E-02 0.188E-03 0.551E-17 ort(H,U,f) =-0.332E-03 0.361E-03 0.128E-16
CGA:   4    -0.148314190046E+03   -0.31650E-02   -0.31662E-02  1152   0.220E-02 0.296E-04
 gam= 0.183 trial= 0.600  step= 0.571 mean= 0.600
 gam= 0.253 g(H,U,f)=  0.472E-03 0.845E-04 0.199E-17 ort(H,U,f) =-0.153E-03 0.167E-03 0.490E-17
CGA:   5    -0.148314818977E+03   -0.62893E-03   -0.62914E-03  1152   0.557E-03 0.140E-04
 gam= 0.253 trial= 0.598  step= 0.669 mean= 0.598
 gam= 0.294 g(H,U,f)=  0.140E-03 0.235E-04 0.120E-17 ort(H,U,f) =-0.650E-04 0.653E-04 0.239E-17
CGA:   6    -0.148315006264E+03   -0.18729E-03   -0.18728E-03  1152   0.163E-03 0.261E-06
 gam= 0.294 trial= 0.602  step= 0.767 mean= 0.602
 gam= 0.304 g(H,U,f)=  0.457E-04 0.399E-05 0.416E-18 ort(H,U,f) =-0.163E-04 0.167E-04 0.121E-17
CGA:   7    -0.148315068990E+03   -0.62727E-04   -0.62698E-04  1152   0.497E-04 0.351E-06
 gam= 0.304 trial= 0.610  step= 0.726 mean= 0.610
 gam= 0.227 g(H,U,f)=  0.108E-04 0.424E-06 0.591E-19 ort(H,U,f) =-0.119E-05 0.264E-05 0.308E-18
CGA:   8    -0.148315087153E+03   -0.18163E-04   -0.18078E-04  1152   0.113E-04 0.146E-05
 gam= 0.227 trial= 0.616  step= 0.726 mean= 0.616
 gam= 0.216 g(H,U,f)=  0.235E-05 0.775E-07 0.650E-20 ort(H,U,f) =-0.348E-06 0.268E-06 0.420E-19
CGA:   9    -0.148315091358E+03   -0.42042E-05   -0.42087E-05  1152   0.243E-05-0.800E-07
 gam= 0.216 trial= 0.622  step= 0.794 mean= 0.622
 final diagonalization
   5 F= -.14831509E+03 E0= -.14831509E+03  d E =-.112271E-01
 curvature:  -0.96 expect dE=-0.639E-01 dE for cont linesearch -0.453E-09
 trial: gam= 2.51543 g(F)=  0.638E-01 g(S)=  0.276E-02 ort =-0.534E-05 (trialstep = 0.604E-01)
 search vector abs. value=  0.449E+00
 bond charge predicted
 wavefunctions rotated
       N       E                     dE             d eps       ncg     rms          ort
 gam= 0.000 g(H,U,f)=  0.169E-01 0.225E-03 0.165E-18 ort(H,U,f) = 0.000E+00 0.000E+00 0.000E+00
SDA:   1    -0.148312938801E+03    0.21484E-02    0.00000E+00  1152   0.171E-01 0.000E+00
 gam= 0.000 trial= 0.630  step= 0.550 mean= 0.630
 gam= 0.187 g(H,U,f)=  0.311E-02 0.821E-04 0.234E-18 ort(H,U,f) =-0.261E-05-0.384E-04 0.270E-18
CGA:   2    -0.148317639842E+03   -0.47010E-02   -0.46996E-02  1152   0.320E-02-0.410E-04
 gam= 0.187 trial= 0.626  step= 0.575 mean= 0.626
 gam= 0.221 g(H,U,f)=  0.679E-03 0.284E-04 0.372E-18 ort(H,U,f) =-0.230E-04 0.238E-04 0.296E-18
CGA:   3    -0.148318555814E+03   -0.91597E-03   -0.91598E-03  1152   0.707E-03 0.839E-06
 gam= 0.221 trial= 0.624  step= 0.539 mean= 0.624
 gam= 0.202 g(H,U,f)=  0.131E-03 0.119E-04 0.140E-18 ort(H,U,f) =-0.155E-04 0.214E-04 0.316E-18
CGA:   4    -0.148318746112E+03   -0.19030E-03   -0.19055E-03  1152   0.143E-03 0.587E-05
 gam= 0.202 trial= 0.619  step= 0.574 mean= 0.619
 gam= 0.272 g(H,U,f)=  0.337E-04 0.510E-05 0.559E-19 ort(H,U,f) =-0.714E-05 0.104E-04 0.134E-18
CGA:   5    -0.148318787362E+03   -0.41250E-04   -0.41324E-04  1152   0.388E-04 0.329E-05
 gam= 0.272 trial= 0.617  step= 0.668 mean= 0.617
 gam= 0.302 g(H,U,f)=  0.103E-04 0.141E-05 0.338E-19 ort(H,U,f) =-0.361E-05 0.397E-05 0.735E-19
CGA:   6    -0.148318800643E+03   -0.13281E-04   -0.13271E-04  1152   0.117E-04 0.369E-06
 gam= 0.302 trial= 0.620  step= 0.734 mean= 0.620
 gam= 0.281 g(H,U,f)=  0.302E-05 0.268E-06 0.100E-19 ort(H,U,f) =-0.798E-06 0.110E-05 0.318E-19
CGA:   7    -0.148318804997E+03   -0.43541E-05   -0.43366E-05  1152   0.329E-05 0.304E-06
 gam= 0.281 trial= 0.625  step= 0.671 mean= 0.625
 gam= 0.218 g(H,U,f)=  0.675E-06 0.425E-07 0.185E-20 ort(H,U,f) = 0.116E-06 0.211E-06 0.830E-20
CGA:   8    -0.148318806138E+03   -0.11413E-05   -0.11338E-05  1152   0.717E-06 0.327E-06
 gam= 0.218 trial= 0.628  step= 0.782 mean= 0.628
 final diagonalization
   6 F= -.14831881E+03 E0= -.14831881E+03  d E =-.371478E-02
 ZBRENT: can't locate minimum, use default step
 trial-energy change:   -0.003715  1 .order   -0.003722   -0.004016   -0.003428
 step:   0.2415(harm=  0.4130)  dis= 0.00926  next Energy=  -148.328824 (dE=-0.137E-01)
 bond charge predicted
 wavefunctions rotated
       N       E                     dE             d eps       ncg     rms          ort
 gam= 0.000 g(H,U,f)=  0.152E+00 0.203E-02 0.223E-20 ort(H,U,f) = 0.000E+00 0.000E+00 0.000E+00
SDA:   1    -0.148273603319E+03    0.45202E-01    0.00000E+00  1152   0.154E+00 0.000E+00
 gam= 0.000 trial= 0.635  step= 0.548 mean= 0.635
 gam= 0.187 g(H,U,f)=  0.281E-01 0.718E-03 0.208E-19 ort(H,U,f) = 0.296E-03-0.347E-03 0.273E-19
CGA:   2    -0.148315863275E+03   -0.42260E-01   -0.42264E-01  1152   0.288E-01-0.517E-04
 gam= 0.187 trial= 0.631  step= 0.576 mean= 0.631
 gam= 0.222 g(H,U,f)=  0.613E-02 0.254E-03 0.132E-19 ort(H,U,f) =-0.214E-03 0.207E-03 0.102E-19
CGA:   3    -0.148324146085E+03   -0.82828E-02   -0.82822E-02  1152   0.638E-02-0.688E-05
 gam= 0.222 trial= 0.628  step= 0.543 mean= 0.628
 gam= 0.201 g(H,U,f)=  0.118E-02 0.108E-03 0.128E-19 ort(H,U,f) =-0.173E-03 0.191E-03 0.293E-19
CGA:   4    -0.148325878158E+03   -0.17321E-02   -0.17329E-02  1152   0.128E-02 0.178E-04
 gam= 0.201 trial= 0.624  step= 0.586 mean= 0.624
 gam= 0.277 g(H,U,f)=  0.311E-03 0.444E-04 0.651E-20 ort(H,U,f) =-0.819E-04 0.921E-04 0.159E-19
CGA:   5    -0.148326255160E+03   -0.37700E-03   -0.37719E-03  1152   0.356E-03 0.101E-04
 gam= 0.277 trial= 0.622  step= 0.662 mean= 0.622
 gam= 0.298 g(H,U,f)=  0.936E-04 0.123E-04 0.483E-20 ort(H,U,f) =-0.342E-04 0.353E-04 0.106E-19
CGA:   6    -0.148326373833E+03   -0.11867E-03   -0.11865E-03  1152   0.106E-03 0.102E-05
 gam= 0.298 trial= 0.624  step= 0.737 mean= 0.624
 gam= 0.287 g(H,U,f)=  0.280E-04 0.233E-05 0.196E-20 ort(H,U,f) =-0.879E-05 0.961E-05 0.615E-20
CGA:   7    -0.148326413031E+03   -0.39198E-04   -0.39151E-04  1152   0.304E-04 0.821E-06
 gam= 0.287 trial= 0.630  step= 0.710 mean= 0.630
 gam= 0.226 g(H,U,f)=  0.656E-05 0.307E-06 0.346E-21 ort(H,U,f) =-0.634E-06 0.164E-05 0.173E-20
CGA:   8    -0.148326423937E+03   -0.10906E-04   -0.10866E-04  1152   0.686E-05 0.100E-05
 gam= 0.226 trial= 0.634  step= 0.735 mean= 0.634
 gam= 0.230 g(H,U,f)=  0.152E-05 0.586E-07 0.486E-22 ort(H,U,f) =-0.377E-06 0.199E-06 0.287E-21
CGA:   9    -0.148326426532E+03   -0.25946E-05   -0.26037E-05  1152   0.158E-05-0.178E-06
 gam= 0.230 trial= 0.639  step= 0.828 mean= 0.639
 final diagonalization
   7 F= -.14832643E+03 E0= -.14832643E+03  d E =-.113352E-01
 curvature:  -1.06 expect dE=-0.175E-01 dE for cont linesearch -0.179E-02
 ZBRENT: increasing intervall
 opt :   0.6037  next Energy=  -148.325746 (dE=-0.107E-01)
 bond charge predicted
 wavefunctions rotated
       N       E                     dE             d eps       ncg     rms          ort
 gam= 0.000 g(H,U,f)=  0.611E+00 0.811E-02 0.153E-14 ort(H,U,f) = 0.000E+00 0.000E+00 0.000E+00
SDA:   1    -0.148114199406E+03    0.21222E+00    0.00000E+00  1152   0.619E+00 0.000E+00
 gam= 0.000 trial= 0.648  step= 0.546 mean= 0.648
 gam= 0.187 g(H,U,f)=  0.113E+00 0.273E-02 0.108E-55 ort(H,U,f) = 0.176E-02-0.141E-02 0.000E+00
CGA:   2    -0.148283051049E+03   -0.16885E+00   -0.16893E+00  1152   0.116E+00 0.354E-03
 gam= 0.187 trial= 0.643  step= 0.575 mean= 0.643
 gam= 0.223 g(H,U,f)=  0.248E-01 0.100E-02 0.162E-13 ort(H,U,f) =-0.855E-03 0.794E-03 0.118E-13
CGA:   3    -0.148316333827E+03   -0.33283E-01   -0.33277E-01  1152   0.258E-01-0.608E-04
 gam= 0.223 trial= 0.640  step= 0.541 mean= 0.640
 gam= 0.202 g(H,U,f)=  0.478E-02 0.428E-03 0.838E-14 ort(H,U,f) =-0.716E-03 0.755E-03 0.193E-13
CGA:   4    -0.148323306880E+03   -0.69731E-02   -0.69754E-02  1152   0.521E-02 0.390E-04
 gam= 0.202 trial= 0.635  step= 0.584 mean= 0.635
 gam= 0.277 g(H,U,f)=  0.127E-02 0.177E-03-0.290E-53 ort(H,U,f) =-0.346E-03 0.366E-03 0.000E+00
CGA:   5    -0.148324831528E+03   -0.15246E-02   -0.15252E-02  1152   0.144E-02 0.209E-04
 gam= 0.277 trial= 0.632  step= 0.660 mean= 0.632
 gam= 0.296 g(H,U,f)=  0.377E-03 0.494E-04-0.804E-53 ort(H,U,f) =-0.139E-03 0.141E-03 0.000E+00
CGA:   6    -0.148325309404E+03   -0.47788E-03   -0.47785E-03  1152   0.427E-03 0.226E-05
 gam= 0.296 trial= 0.634  step= 0.739 mean= 0.634
 gam= 0.290 g(H,U,f)=  0.114E-03 0.948E-05-0.131E-53 ort(H,U,f) =-0.372E-04 0.387E-04 0.000E+00
CGA:   7    -0.148325467501E+03   -0.15810E-03   -0.15802E-03  1152   0.124E-03 0.147E-05
 gam= 0.290 trial= 0.639  step= 0.722 mean= 0.639
 gam= 0.232 g(H,U,f)=  0.274E-04 0.118E-05 0.536E-31 ort(H,U,f) =-0.445E-05 0.644E-05 0.273E-30
CGA:   8    -0.148325512320E+03   -0.44819E-04   -0.44737E-04  1152   0.286E-04 0.199E-05
 gam= 0.232 trial= 0.643  step= 0.718 mean= 0.643
 gam= 0.219 g(H,U,f)=  0.603E-05 0.227E-06 0.391E-54 ort(H,U,f) =-0.113E-05 0.773E-06 0.000E+00
CGA:   9    -0.148325522747E+03   -0.10427E-04   -0.10441E-04  1152   0.626E-05-0.356E-06
 gam= 0.219 trial= 0.647  step= 0.785 mean= 0.647
 gam= 0.240 g(H,U,f)=  0.147E-05 0.332E-07 0.709E-33 ort(H,U,f) =-0.518E-06 0.820E-07 0.690E-32
CGA:  10    -0.148325525141E+03   -0.23940E-05   -0.24241E-05  1152   0.150E-05-0.436E-06
 gam= 0.240 trial= 0.654  step= 0.778 mean= 0.654
 final diagonalization
   8 F= -.14832553E+03 E0= -.14832553E+03  d E =-.104338E-01
 curvature:   0.40 expect dE= 0.226E-01 dE for cont linesearch  0.979E-03
 ZBRENT: bracketing found
 ZBRENT: interpolating
 opt :   0.4062  next Energy=  -148.328687 (dE=-0.136E-01)
 bond charge predicted
 wavefunctions rotated
       N       E                     dE             d eps       ncg     rms          ort
 gam= 0.000 g(H,U,f)=  0.181E+00 0.238E-02 0.129E-18 ort(H,U,f) = 0.000E+00 0.000E+00 0.000E+00
SDA:   1    -0.148266034175E+03    0.59489E-01    0.00000E+00  1152   0.184E+00 0.000E+00
 gam= 0.000 trial= 0.660  step= 0.544 mean= 0.660
 gam= 0.189 g(H,U,f)=  0.337E-01 0.921E-03 0.841E-20 ort(H,U,f) = 0.417E-03-0.366E-03 0.786E-20
CGA:   2    -0.148316030653E+03   -0.49996E-01   -0.49988E-01  1152   0.347E-01 0.508E-04
 gam= 0.189 trial= 0.654  step= 0.572 mean= 0.654
 gam= 0.222 g(H,U,f)=  0.738E-02 0.321E-03 0.774E-19 ort(H,U,f) =-0.277E-03 0.278E-03 0.640E-19
CGA:   3    -0.148325946700E+03   -0.99160E-02   -0.99169E-02  1152   0.771E-02 0.122E-05
 gam= 0.222 trial= 0.650  step= 0.547 mean= 0.650
 gam= 0.204 g(H,U,f)=  0.144E-02 0.131E-03 0.480E-20 ort(H,U,f) =-0.260E-03 0.239E-03 0.108E-19
CGA:   4    -0.148328054325E+03   -0.21076E-02   -0.21064E-02  1152   0.157E-02-0.212E-04
 gam= 0.204 trial= 0.645  step= 0.591 mean= 0.645
 gam= 0.283 g(H,U,f)=  0.391E-03 0.532E-04 0.116E-20 ort(H,U,f) =-0.122E-03 0.112E-03 0.276E-20
CGA:   5    -0.148328517635E+03   -0.46331E-03   -0.46304E-03  1152   0.444E-03-0.101E-04
 gam= 0.283 trial= 0.642  step= 0.655 mean= 0.642
 gam= 0.289 g(H,U,f)=  0.114E-03 0.147E-04 0.488E-21 ort(H,U,f) =-0.434E-04 0.427E-04 0.109E-20
CGA:   6    -0.148328662076E+03   -0.14444E-03   -0.14445E-03  1152   0.128E-03-0.689E-06
 gam= 0.289 trial= 0.643  step= 0.745 mean= 0.643
 gam= 0.291 g(H,U,f)=  0.347E-04 0.270E-05 0.848E-22 ort(H,U,f) =-0.122E-04 0.111E-04 0.269E-21
CGA:   7    -0.148328709748E+03   -0.47672E-04   -0.47726E-04  1152   0.374E-04-0.106E-05
 gam= 0.291 trial= 0.648  step= 0.747 mean= 0.648
 gam= 0.243 g(H,U,f)=  0.879E-05 0.297E-06-0.133E-29 ort(H,U,f) =-0.273E-05 0.163E-05-0.737E-29
CGA:   8    -0.148328723546E+03   -0.13798E-04   -0.13853E-04  1152   0.909E-05-0.110E-05
 gam= 0.243 trial= 0.653  step= 0.669 mean= 0.653
 gam= 0.189 g(H,U,f)=  0.166E-05 0.636E-07 0.444E-55 ort(H,U,f) = 0.903E-07 0.193E-06 0.000E+00
CGA:   9    -0.148328726497E+03   -0.29510E-05   -0.29488E-05  1152   0.172E-05 0.284E-06
 gam= 0.189 trial= 0.654  step= 0.663 mean= 0.654
 final diagonalization
   9 F= -.14832873E+03 E0= -.14832873E+03  d E =-.136351E-01
 curvature:  -0.93 expect dE=-0.152E-01 dE for cont linesearch -0.249E-07
 trial: gam= 0.26121 g(F)=  0.123E-01 g(S)=  0.393E-02 ort = 0.109E-03 (trialstep = 0.130E+00)
 search vector abs. value=  0.469E-01
 bond charge predicted
 wavefunctions rotated
       N       E                     dE             d eps       ncg     rms          ort
 gam= 0.000 g(H,U,f)=  0.107E-01 0.146E-03 0.124E-21 ort(H,U,f) = 0.000E+00 0.000E+00 0.000E+00
SDA:   1    -0.148326712611E+03    0.20109E-02    0.00000E+00  1152   0.108E-01 0.000E+00
 gam= 0.000 trial= 0.654  step= 0.584 mean= 0.654
 gam= 0.185 g(H,U,f)=  0.196E-02 0.407E-04 0.794E-23 ort(H,U,f) = 0.443E-04-0.634E-04 0.432E-22
CGA:   2    -0.148329878105E+03   -0.31655E-02   -0.31649E-02  1152   0.200E-02-0.191E-04
 gam= 0.185 trial= 0.651  step= 0.624 mean= 0.651
 gam= 0.199 g(H,U,f)=  0.382E-03 0.167E-04 0.123E-21 ort(H,U,f) =-0.135E-04 0.113E-04 0.560E-22
CGA:   3    -0.148330502132E+03   -0.62403E-03   -0.62400E-03  1152   0.399E-03-0.218E-05
 gam= 0.199 trial= 0.649  step= 0.540 mean= 0.649
 gam= 0.206 g(H,U,f)=  0.765E-04 0.561E-05 0.236E-22 ort(H,U,f) =-0.802E-05 0.961E-05 0.652E-22
CGA:   4    -0.148330609488E+03   -0.10736E-03   -0.10745E-03  1152   0.821E-04 0.159E-05
 gam= 0.206 trial= 0.644  step= 0.593 mean= 0.644
 gam= 0.261 g(H,U,f)=  0.189E-04 0.255E-05 0.768E-23 ort(H,U,f) =-0.421E-05 0.506E-05 0.215E-22
CGA:   5    -0.148330633908E+03   -0.24419E-04   -0.24441E-04  1152   0.215E-04 0.850E-06
 gam= 0.261 trial= 0.641  step= 0.711 mean= 0.641
 gam= 0.322 g(H,U,f)=  0.622E-05 0.692E-06 0.782E-23 ort(H,U,f) =-0.220E-05 0.197E-05 0.137E-22
CGA:   6    -0.148330641604E+03   -0.76960E-05   -0.77038E-05  1152   0.691E-05-0.227E-06
 gam= 0.322 trial= 0.645  step= 0.727 mean= 0.645
 gam= 0.296 g(H,U,f)=  0.194E-05 0.105E-06 0.210E-23 ort(H,U,f) =-0.355E-06 0.469E-06 0.656E-23
CGA:   7    -0.148330644095E+03   -0.24908E-05   -0.24861E-05  1152   0.204E-05 0.114E-06
 gam= 0.296 trial= 0.649  step= 0.679 mean= 0.649
 gam= 0.213 g(H,U,f)=  0.418E-06 0.169E-07 0.365E-24 ort(H,U,f) = 0.565E-07 0.880E-07 0.171E-23
CGA:   8    -0.148330644803E+03   -0.70808E-06   -0.70579E-06  1152   0.435E-06 0.145E-06
 gam= 0.213 trial= 0.650  step= 0.767 mean= 0.650
 final diagonalization
  10 F= -.14833064E+03 E0= -.14833064E+03  d E =-.191831E-02
 ZBRENT: can't locate minimum, use default step
 trial-energy change:   -0.001918  1 .order   -0.001917   -0.002103   -0.001730
 step:   0.5181(harm=  0.7303)  dis= 0.00790  next Energy=  -148.334656 (dE=-0.593E-02)
 bond charge predicted
 wavefunctions rotated
       N       E                     dE             d eps       ncg     rms          ort
 gam= 0.000 g(H,U,f)=  0.963E-01 0.132E-02 0.684E-20 ort(H,U,f) = 0.000E+00 0.000E+00 0.000E+00
SDA:   1    -0.148298779494E+03    0.31865E-01    0.00000E+00  1152   0.976E-01 0.000E+00
 gam= 0.000 trial= 0.656  step= 0.583 mean= 0.656
 gam= 0.184 g(H,U,f)=  0.176E-01 0.361E-03 0.340E-21 ort(H,U,f) = 0.541E-03-0.571E-03 0.335E-20
CGA:   2    -0.148327243679E+03   -0.28464E-01   -0.28465E-01  1152   0.180E-01-0.301E-04
 gam= 0.184 trial= 0.653  step= 0.625 mean= 0.653
 gam= 0.199 g(H,U,f)=  0.343E-02 0.150E-03 0.873E-20 ort(H,U,f) =-0.110E-03 0.100E-03 0.331E-20
CGA:   3    -0.148332857413E+03   -0.56137E-02   -0.56135E-02  1152   0.358E-02-0.101E-04
 gam= 0.199 trial= 0.651  step= 0.542 mean= 0.651
 gam= 0.207 g(H,U,f)=  0.690E-03 0.505E-04 0.182E-20 ort(H,U,f) =-0.811E-04 0.860E-04 0.520E-20
CGA:   4    -0.148333825369E+03   -0.96796E-03   -0.96826E-03  1152   0.741E-03 0.488E-05
 gam= 0.207 trial= 0.646  step= 0.595 mean= 0.646
 gam= 0.266 g(H,U,f)=  0.174E-03 0.229E-04 0.515E-21 ort(H,U,f) =-0.429E-04 0.455E-04 0.152E-20
CGA:   5    -0.148334045769E+03   -0.22040E-03   -0.22047E-03  1152   0.197E-03 0.263E-05
 gam= 0.266 trial= 0.643  step= 0.703 mean= 0.643
 gam= 0.316 g(H,U,f)=  0.560E-04 0.627E-05 0.545E-21 ort(H,U,f) =-0.186E-04 0.179E-04 0.926E-21
CGA:   6    -0.148334115096E+03   -0.69327E-04   -0.69345E-04  1152   0.622E-04-0.625E-06
 gam= 0.316 trial= 0.646  step= 0.740 mean= 0.646
 gam= 0.306 g(H,U,f)=  0.181E-04 0.927E-06 0.152E-21 ort(H,U,f) =-0.379E-05 0.413E-05 0.460E-21
CGA:   7    -0.148334138066E+03   -0.22970E-04   -0.22954E-04  1152   0.190E-04 0.342E-06
 gam= 0.306 trial= 0.651  step= 0.708 mean= 0.651
 gam= 0.221 g(H,U,f)=  0.407E-05 0.131E-06 0.223E-22 ort(H,U,f) =-0.222E-06 0.698E-06 0.113E-21
CGA:   8    -0.148334144847E+03   -0.67802E-05   -0.67669E-05  1152   0.420E-05 0.476E-06
 gam= 0.221 trial= 0.654  step= 0.737 mean= 0.654
 gam= 0.224 g(H,U,f)=  0.922E-06 0.207E-07 0.281E-23 ort(H,U,f) =-0.990E-07 0.688E-07 0.169E-22
CGA:   9    -0.148334146432E+03   -0.15859E-05   -0.15870E-05  1152   0.943E-06-0.302E-07
 gam= 0.224 trial= 0.658  step= 0.765 mean= 0.658
 final diagonalization
  11 F= -.14833415E+03 E0= -.14833415E+03  d E =-.541994E-02
 curvature:  -0.92 expect dE=-0.122E-01 dE for cont linesearch -0.429E-03
 ZBRENT: increasing intervall
 opt :   1.2953  next Energy=  -148.331024 (dE=-0.230E-02)
 bond charge predicted
 wavefunctions rotated
       N       E                     dE             d eps       ncg     rms          ort
 gam= 0.000 g(H,U,f)=  0.386E+00 0.528E-02 0.120E-19 ort(H,U,f) = 0.000E+00 0.000E+00 0.000E+00
SDA:   1    -0.148189444538E+03    0.14470E+00    0.00000E+00  1152   0.391E+00 0.000E+00
 gam= 0.000 trial= 0.663  step= 0.583 mean= 0.663
 gam= 0.184 g(H,U,f)=  0.706E-01 0.143E-02 0.191E-22 ort(H,U,f) = 0.241E-02-0.230E-02-0.226E-20
CGA:   2    -0.148303409594E+03   -0.11397E+00   -0.11399E+00  1152   0.720E-01 0.112E-03
 gam= 0.184 trial= 0.659  step= 0.625 mean= 0.659
 gam= 0.199 g(H,U,f)=  0.138E-01 0.603E-03 0.255E-19 ort(H,U,f) =-0.432E-03 0.395E-03 0.687E-20
CGA:   3    -0.148325924138E+03   -0.22515E-01   -0.22513E-01  1152   0.144E-01-0.370E-04
 gam= 0.199 trial= 0.657  step= 0.540 mean= 0.657
 gam= 0.209 g(H,U,f)=  0.280E-02 0.204E-03 0.658E-20 ort(H,U,f) =-0.333E-03 0.345E-03 0.197E-19
CGA:   4    -0.148329801168E+03   -0.38770E-02   -0.38780E-02  1152   0.300E-02 0.114E-04
 gam= 0.209 trial= 0.652  step= 0.592 mean= 0.652
 gam= 0.265 g(H,U,f)=  0.703E-03 0.926E-04 0.153E-20 ort(H,U,f) =-0.178E-03 0.184E-03 0.494E-20
CGA:   5    -0.148330691074E+03   -0.88991E-03   -0.89007E-03  1152   0.795E-03 0.573E-05
 gam= 0.265 trial= 0.649  step= 0.701 mean= 0.649
 gam= 0.314 g(H,U,f)=  0.224E-03 0.255E-04 0.190E-20 ort(H,U,f) =-0.736E-04 0.726E-04 0.303E-20
CGA:   6    -0.148330970514E+03   -0.27944E-03   -0.27947E-03  1152   0.250E-03-0.101E-05
 gam= 0.314 trial= 0.651  step= 0.743 mean= 0.651
 gam= 0.309 g(H,U,f)=  0.733E-04 0.382E-05 0.587E-21 ort(H,U,f) =-0.160E-04 0.167E-04 0.170E-20
CGA:   7    -0.148331063234E+03   -0.92720E-04   -0.92689E-04  1152   0.772E-04 0.669E-06
 gam= 0.309 trial= 0.656  step= 0.714 mean= 0.656
 gam= 0.224 g(H,U,f)=  0.167E-04 0.525E-06 0.860E-22 ort(H,U,f) =-0.172E-05 0.278E-05 0.435E-21
CGA:   8    -0.148331090901E+03   -0.27667E-04   -0.27636E-04  1152   0.173E-04 0.105E-05
 gam= 0.224 trial= 0.659  step= 0.729 mean= 0.659
 gam= 0.218 g(H,U,f)=  0.368E-05 0.807E-07 0.107E-22 ort(H,U,f) =-0.312E-06 0.256E-06 0.653E-22
CGA:   9    -0.148331097275E+03   -0.63739E-05   -0.63760E-05  1152   0.376E-05-0.557E-07
 gam= 0.218 trial= 0.662  step= 0.759 mean= 0.662
 gam= 0.235 g(H,U,f)=  0.874E-06 0.977E-08 0.372E-24 ort(H,U,f) =-0.928E-07-0.815E-10 0.465E-23
CGA:  10    -0.148331098694E+03   -0.14197E-05   -0.14241E-05  1152   0.884E-06-0.929E-07
 gam= 0.235 trial= 0.667  step= 0.763 mean= 0.667
 final diagonalization
  12 F= -.14833110E+03 E0= -.14833110E+03  d E =-.237220E-02
 curvature:   6.71 expect dE= 0.558E+00 dE for cont linesearch  0.223E-01
 ZBRENT: bracketing found
 ZBRENT: interpolating
 opt :   0.7297  next Energy=  -148.334640 (dE=-0.591E-02)
 bond charge predicted
 wavefunctions rotated
       N       E                     dE             d eps       ncg     rms          ort
 gam= 0.000 g(H,U,f)=  0.204E+00 0.278E-02 0.283E-18 ort(H,U,f) = 0.000E+00 0.000E+00 0.000E+00
SDA:   1    -0.148259646441E+03    0.71451E-01    0.00000E+00  1152   0.207E+00 0.000E+00
 gam= 0.000 trial= 0.672  step= 0.582 mean= 0.672
 gam= 0.185 g(H,U,f)=  0.376E-01 0.790E-03 0.589E-20 ort(H,U,f) = 0.119E-02-0.118E-02 0.140E-19
CGA:   2    -0.148319947321E+03   -0.60301E-01   -0.60295E-01  1152   0.384E-01 0.764E-05
 gam= 0.185 trial= 0.667  step= 0.621 mean= 0.667
 gam= 0.200 g(H,U,f)=  0.735E-02 0.323E-03 0.112E-18 ort(H,U,f) =-0.202E-03 0.214E-03 0.625E-19
CGA:   3    -0.148331866521E+03   -0.11919E-01   -0.11920E-01  1152   0.767E-02 0.120E-04
 gam= 0.200 trial= 0.665  step= 0.542 mean= 0.665
 gam= 0.207 g(H,U,f)=  0.148E-02 0.107E-03 0.106E-19 ort(H,U,f) =-0.192E-03 0.184E-03 0.277E-19
CGA:   4    -0.148333946788E+03   -0.20803E-02   -0.20796E-02  1152   0.159E-02-0.833E-05
 gam= 0.207 trial= 0.659  step= 0.596 mean= 0.659
 gam= 0.267 g(H,U,f)=  0.376E-03 0.480E-04 0.378E-20 ort(H,U,f) =-0.994E-04 0.961E-04 0.971E-20
CGA:   5    -0.148334419089E+03   -0.47230E-03   -0.47220E-03  1152   0.424E-03-0.323E-05
 gam= 0.267 trial= 0.656  step= 0.689 mean= 0.656
 gam= 0.308 g(H,U,f)=  0.117E-03 0.136E-04 0.308E-20 ort(H,U,f) =-0.374E-04 0.384E-04 0.576E-20
CGA:   6    -0.148334564854E+03   -0.14576E-03   -0.14575E-03  1152   0.131E-03 0.998E-06
 gam= 0.308 trial= 0.657  step= 0.750 mean= 0.657
 gam= 0.312 g(H,U,f)=  0.388E-04 0.202E-05 0.638E-21 ort(H,U,f) =-0.937E-05 0.879E-05 0.206E-20
CGA:   7    -0.148334613866E+03   -0.49012E-04   -0.49039E-04  1152   0.408E-04-0.575E-06
 gam= 0.312 trial= 0.662  step= 0.736 mean= 0.662
 gam= 0.233 g(H,U,f)=  0.924E-05 0.260E-06 0.764E-22 ort(H,U,f) =-0.201E-05 0.135E-05 0.433E-21
CGA:   8    -0.148334628792E+03   -0.14927E-04   -0.14951E-04  1152   0.950E-05-0.668E-06
 gam= 0.233 trial= 0.666  step= 0.705 mean= 0.666
 gam= 0.202 g(H,U,f)=  0.188E-05 0.412E-07 0.845E-23 ort(H,U,f) =-0.688E-08 0.111E-06 0.587E-22
CGA:   9    -0.148334632084E+03   -0.32922E-05   -0.32903E-05  1152   0.192E-05 0.104E-06
 gam= 0.202 trial= 0.668  step= 0.731 mean= 0.668
 final diagonalization
  13 F= -.14833463E+03 E0= -.14833463E+03  d E =-.590559E-02
 curvature:  -0.15 expect dE=-0.353E-02 dE for cont linesearch -0.191E-07
 trial: gam= 1.47401 g(F)=  0.222E-01 g(S)=  0.155E-02 ort =-0.777E-04 (trialstep = 0.933E-01)
 search vector abs. value=  0.125E+00
 bond charge predicted
 wavefunctions rotated
       N       E                     dE             d eps       ncg     rms          ort
 gam= 0.000 g(H,U,f)=  0.154E-01 0.176E-03 0.352E-20 ort(H,U,f) = 0.000E+00 0.000E+00 0.000E+00
SDA:   1    -0.148331069645E+03    0.35591E-02    0.00000E+00  1152   0.156E-01 0.000E+00
 gam= 0.000 trial= 0.671  step= 0.586 mean= 0.671
 gam= 0.175 g(H,U,f)=  0.269E-02 0.375E-04 0.102E-20 ort(H,U,f) = 0.648E-04-0.699E-04-0.234E-20
CGA:   2    -0.148335627563E+03   -0.45579E-02   -0.45578E-02  1152   0.273E-02-0.510E-05
 gam= 0.175 trial= 0.667  step= 0.618 mean= 0.667
 gam= 0.194 g(H,U,f)=  0.509E-03 0.203E-04 0.406E-21 ort(H,U,f) =-0.110E-04 0.697E-05-0.363E-21
CGA:   3    -0.148336469523E+03   -0.84196E-03   -0.84186E-03  1152   0.529E-03-0.407E-05
 gam= 0.194 trial= 0.664  step= 0.527 mean= 0.664
 gam= 0.204 g(H,U,f)=  0.102E-03 0.576E-05 0.189E-22 ort(H,U,f) =-0.749E-05 0.902E-05 0.757E-22
CGA:   4    -0.148336608790E+03   -0.13927E-03   -0.13937E-03  1152   0.108E-03 0.153E-05
 gam= 0.204 trial= 0.657  step= 0.578 mean= 0.657
 gam= 0.241 g(H,U,f)=  0.233E-04 0.264E-05 0.844E-23 ort(H,U,f) =-0.445E-05 0.504E-05-0.232E-22
CGA:   5    -0.148336640018E+03   -0.31228E-04   -0.31252E-04  1152   0.260E-04 0.591E-06
 gam= 0.241 trial= 0.653  step= 0.705 mean= 0.653
 gam= 0.305 g(H,U,f)=  0.712E-05 0.808E-06 0.762E-23 ort(H,U,f) =-0.234E-05 0.208E-05-0.266E-23
CGA:   6    -0.148336649213E+03   -0.91942E-05   -0.92007E-05  1152   0.793E-05-0.256E-06
 gam= 0.305 trial= 0.656  step= 0.733 mean= 0.656
 gam= 0.312 g(H,U,f)=  0.231E-05 0.162E-06 0.320E-23 ort(H,U,f) =-0.516E-06 0.558E-06 0.447E-23
CGA:   7    -0.148336652092E+03   -0.28794E-05   -0.28778E-05  1152   0.247E-05 0.427E-07
 gam= 0.312 trial= 0.660  step= 0.684 mean= 0.660
 gam= 0.217 g(H,U,f)=  0.513E-06 0.239E-07 0.367E-24 ort(H,U,f) = 0.386E-09 0.121E-06 0.156E-23
CGA:   8    -0.148336652943E+03   -0.85150E-06   -0.84996E-06  1152   0.537E-06 0.122E-06
 gam= 0.217 trial= 0.661  step= 0.759 mean= 0.661
 final diagonalization
  14 F= -.14833665E+03 E0= -.14833665E+03  d E =-.202086E-02
 ZBRENT: can't locate minimum, use default step
 trial-energy change:   -0.002021  1 .order   -0.002016   -0.002204   -0.001829
 step:   0.3733(harm=  0.5488)  dis= 0.00846  next Energy=  -148.341112 (dE=-0.648E-02)
 bond charge predicted
 wavefunctions rotated
       N       E                     dE             d eps       ncg     rms          ort
 gam= 0.000 g(H,U,f)=  0.139E+00 0.158E-02 0.589E-19 ort(H,U,f) = 0.000E+00 0.000E+00 0.000E+00
SDA:   1    -0.148290148935E+03    0.46503E-01    0.00000E+00  1152   0.140E+00 0.000E+00
 gam= 0.000 trial= 0.666  step= 0.586 mean= 0.666
 gam= 0.175 g(H,U,f)=  0.242E-01 0.335E-03 0.620E-19 ort(H,U,f) = 0.640E-03-0.631E-03-0.114E-18
CGA:   2    -0.148331191752E+03   -0.41043E-01   -0.41045E-01  1152   0.245E-01 0.909E-05
 gam= 0.175 trial= 0.662  step= 0.618 mean= 0.662
 gam= 0.193 g(H,U,f)=  0.455E-02 0.182E-03 0.675E-20 ort(H,U,f) =-0.769E-04 0.619E-04-0.119E-19
CGA:   3    -0.148338770740E+03   -0.75790E-02   -0.75786E-02  1152   0.473E-02-0.149E-04
 gam= 0.193 trial= 0.660  step= 0.531 mean= 0.660
 gam= 0.203 g(H,U,f)=  0.911E-03 0.514E-04 0.261E-22 ort(H,U,f) =-0.758E-04 0.802E-04 0.311E-21
CGA:   4    -0.148340024339E+03   -0.12536E-02   -0.12539E-02  1152   0.962E-03 0.443E-05
 gam= 0.203 trial= 0.653  step= 0.581 mean= 0.653
 gam= 0.242 g(H,U,f)=  0.209E-03 0.235E-04 0.107E-20 ort(H,U,f) =-0.430E-04 0.449E-04-0.592E-21
CGA:   5    -0.148340303867E+03   -0.27953E-03   -0.27960E-03  1152   0.233E-03 0.188E-05
 gam= 0.242 trial= 0.650  step= 0.701 mean= 0.650
 gam= 0.302 g(H,U,f)=  0.630E-04 0.724E-05 0.398E-22 ort(H,U,f) =-0.195E-04 0.187E-04-0.174E-21
CGA:   6    -0.148340385625E+03   -0.81758E-04   -0.81777E-04  1152   0.703E-04-0.748E-06
 gam= 0.302 trial= 0.652  step= 0.740 mean= 0.652
 gam= 0.320 g(H,U,f)=  0.210E-04 0.144E-05 0.442E-22 ort(H,U,f) =-0.483E-05 0.496E-05-0.130E-22
CGA:   7    -0.148340411560E+03   -0.25935E-04   -0.25930E-04  1152   0.225E-04 0.128E-06
 gam= 0.320 trial= 0.657  step= 0.703 mean= 0.657
 gam= 0.226 g(H,U,f)=  0.488E-05 0.194E-06 0.298E-23 ort(H,U,f) =-0.624E-06 0.101E-05 0.106E-22
CGA:   8    -0.148340419481E+03   -0.79212E-05   -0.79121E-05  1152   0.507E-05 0.389E-06
 gam= 0.226 trial= 0.659  step= 0.734 mean= 0.659
 gam= 0.217 g(H,U,f)=  0.108E-05 0.216E-07 0.185E-23 ort(H,U,f) =-0.131E-06 0.100E-06 0.434E-23
CGA:   9    -0.148340421375E+03   -0.18933E-05   -0.18945E-05  1152   0.110E-05-0.306E-07
 gam= 0.217 trial= 0.663  step= 0.767 mean= 0.663
 final diagonalization
  15 F= -.14834042E+03 E0= -.14834042E+03  d E =-.578929E-02
 curvature:  -1.24 expect dE=-0.134E-01 dE for cont linesearch -0.534E-03
 ZBRENT: increasing intervall
 opt :   0.9333  next Energy=  -148.337670 (dE=-0.304E-02)
 bond charge predicted
 wavefunctions rotated
       N       E                     dE             d eps       ncg     rms          ort
 gam= 0.000 g(H,U,f)=  0.556E+00 0.636E-02 0.376E-18 ort(H,U,f) = 0.000E+00 0.000E+00 0.000E+00
SDA:   1    -0.148135953311E+03    0.20447E+00    0.00000E+00  1152   0.563E+00 0.000E+00
 gam= 0.000 trial= 0.668  step= 0.585 mean= 0.668
 gam= 0.175 g(H,U,f)=  0.971E-01 0.135E-02 0.248E-17 ort(H,U,f) = 0.273E-02-0.256E-02-0.357E-17
CGA:   2    -0.148300552170E+03   -0.16460E+00   -0.16462E+00  1152   0.985E-01 0.176E-03
 gam= 0.175 trial= 0.664  step= 0.618 mean= 0.664
 gam= 0.193 g(H,U,f)=  0.182E-01 0.729E-03 0.223E-19 ort(H,U,f) =-0.278E-03 0.242E-03-0.131E-18
CGA:   3    -0.148331002555E+03   -0.30450E-01   -0.30449E-01  1152   0.190E-01-0.359E-04
 gam= 0.193 trial= 0.661  step= 0.530 mean= 0.661
 gam= 0.205 g(H,U,f)=  0.368E-02 0.207E-03 0.113E-19 ort(H,U,f) =-0.314E-03 0.323E-03 0.184E-20
CGA:   4    -0.148336025016E+03   -0.50225E-02   -0.50230E-02  1152   0.389E-02 0.834E-05
 gam= 0.205 trial= 0.655  step= 0.579 mean= 0.655
 gam= 0.241 g(H,U,f)=  0.843E-03 0.948E-04 0.593E-19 ort(H,U,f) =-0.177E-03 0.181E-03 0.264E-19
CGA:   5    -0.148337151430E+03   -0.11264E-02   -0.11266E-02  1152   0.937E-03 0.421E-05
 gam= 0.241 trial= 0.651  step= 0.700 mean= 0.651
 gam= 0.301 g(H,U,f)=  0.252E-03 0.296E-04 0.121E-20 ort(H,U,f) =-0.772E-04 0.758E-04 0.888E-20
CGA:   6    -0.148337479868E+03   -0.32844E-03   -0.32847E-03  1152   0.282E-03-0.139E-05
 gam= 0.301 trial= 0.654  step= 0.742 mean= 0.654
 gam= 0.322 g(H,U,f)=  0.848E-04 0.588E-05 0.463E-23 ort(H,U,f) =-0.199E-04 0.201E-04-0.247E-21
CGA:   7    -0.148337584186E+03   -0.10432E-03   -0.10431E-03  1152   0.907E-04 0.200E-06
 gam= 0.322 trial= 0.658  step= 0.709 mean= 0.658
 gam= 0.228 g(H,U,f)=  0.199E-04 0.782E-06 0.124E-22 ort(H,U,f) =-0.325E-05 0.408E-05 0.124E-21
CGA:   8    -0.148337616373E+03   -0.32187E-04   -0.32166E-04  1152   0.207E-04 0.831E-06
 gam= 0.228 trial= 0.661  step= 0.729 mean= 0.661
 gam= 0.212 g(H,U,f)=  0.429E-05 0.845E-07 0.433E-23 ort(H,U,f) =-0.443E-06 0.395E-06-0.241E-22
CGA:   9    -0.148337623972E+03   -0.75984E-05   -0.75999E-05  1152   0.438E-05-0.488E-07
 gam= 0.212 trial= 0.664  step= 0.756 mean= 0.664
 gam= 0.223 g(H,U,f)=  0.968E-06 0.851E-08 0.116E-26 ort(H,U,f) =-0.126E-06 0.144E-07-0.779E-26
CGA:  10    -0.148337625616E+03   -0.16448E-05   -0.16499E-05  1152   0.976E-06-0.111E-06
 gam= 0.223 trial= 0.669  step= 0.768 mean= 0.669
 final diagonalization
  16 F= -.14833763E+03 E0= -.14833763E+03  d E =-.299353E-02
 curvature:   6.40 expect dE= 0.427E+00 dE for cont linesearch  0.155E-01
 ZBRENT: bracketing found
 ZBRENT: interpolating
 opt :   0.5394  next Energy=  -148.341031 (dE=-0.640E-02)
 bond charge predicted
 wavefunctions rotated
       N       E                     dE             d eps       ncg     rms          ort
 gam= 0.000 g(H,U,f)=  0.274E+00 0.314E-02 0.482E-17 ort(H,U,f) = 0.000E+00 0.000E+00 0.000E+00
SDA:   1    -0.148241359515E+03    0.96264E-01    0.00000E+00  1152   0.277E+00 0.000E+00
 gam= 0.000 trial= 0.674  step= 0.586 mean= 0.674
 gam= 0.176 g(H,U,f)=  0.483E-01 0.693E-03 0.380E-19 ort(H,U,f) = 0.121E-02-0.125E-02-0.189E-18
CGA:   2    -0.148322688371E+03   -0.81329E-01   -0.81323E-01  1152   0.490E-01-0.329E-04
 gam= 0.176 trial= 0.669  step= 0.614 mean= 0.669
 gam= 0.193 g(H,U,f)=  0.911E-02 0.366E-03 0.380E-18 ort(H,U,f) =-0.117E-03 0.132E-03-0.265E-19
CGA:   3    -0.148337725600E+03   -0.15037E-01   -0.15038E-01  1152   0.947E-02 0.146E-04
 gam= 0.193 trial= 0.666  step= 0.531 mean= 0.666
 gam= 0.203 g(H,U,f)=  0.182E-02 0.102E-03 0.355E-19 ort(H,U,f) =-0.167E-03 0.160E-03 0.927E-19
CGA:   4    -0.148340241928E+03   -0.25163E-02   -0.25158E-02  1152   0.192E-02-0.714E-05
 gam= 0.203 trial= 0.660  step= 0.582 mean= 0.660
 gam= 0.242 g(H,U,f)=  0.419E-03 0.468E-04 0.223E-20 ort(H,U,f) =-0.910E-04 0.892E-04 0.128E-19
CGA:   5    -0.148340800415E+03   -0.55849E-03   -0.55841E-03  1152   0.465E-03-0.182E-05
 gam= 0.242 trial= 0.656  step= 0.692 mean= 0.656
 gam= 0.296 g(H,U,f)=  0.123E-03 0.146E-04 0.855E-20 ort(H,U,f) =-0.363E-04 0.374E-04 0.102E-19
CGA:   6    -0.148340961304E+03   -0.16089E-03   -0.16087E-03  1152   0.138E-03 0.119E-05
 gam= 0.296 trial= 0.658  step= 0.746 mean= 0.658
 gam= 0.324 g(H,U,f)=  0.416E-04 0.292E-05 0.211E-20 ort(H,U,f) =-0.102E-04 0.991E-05 0.538E-20
CGA:   7    -0.148341012725E+03   -0.51421E-04   -0.51433E-04  1152   0.445E-04-0.274E-06
 gam= 0.324 trial= 0.662  step= 0.724 mean= 0.662
 gam= 0.235 g(H,U,f)=  0.101E-04 0.374E-06 0.230E-21 ort(H,U,f) =-0.240E-05 0.193E-05 0.123E-20
CGA:   8    -0.148341028802E+03   -0.16077E-04   -0.16092E-04  1152   0.104E-04-0.475E-06
 gam= 0.235 trial= 0.665  step= 0.709 mean= 0.665
 gam= 0.201 g(H,U,f)=  0.205E-05 0.402E-07 0.504E-22 ort(H,U,f) =-0.555E-07 0.173E-06 0.238E-21
CGA:   9    -0.148341032468E+03   -0.36661E-05   -0.36636E-05  1152   0.209E-05 0.117E-06
 gam= 0.201 trial= 0.667  step= 0.723 mean= 0.667
 final diagonalization
  17 F= -.14834103E+03 E0= -.14834103E+03  d E =-.640038E-02
 curvature:  -0.25 expect dE=-0.449E-02 dE for cont linesearch -0.557E-08
 trial: gam= 0.74678 g(F)=  0.141E-01 g(S)=  0.371E-02 ort =-0.526E-04 (trialstep = 0.183E+00)
 search vector abs. value=  0.876E-01
 bond charge predicted
 wavefunctions rotated
       N       E                     dE             d eps       ncg     rms          ort
 gam= 0.000 g(H,U,f)=  0.408E-01 0.539E-03 0.220E-19 ort(H,U,f) = 0.000E+00 0.000E+00 0.000E+00
SDA:   1    -0.148328182425E+03    0.12846E-01    0.00000E+00  1152   0.413E-01 0.000E+00
 gam= 0.000 trial= 0.670  step= 0.589 mean= 0.670
 gam= 0.202 g(H,U,f)=  0.819E-02 0.152E-03 0.189E-18 ort(H,U,f) = 0.261E-03-0.232E-03-0.706E-19
CGA:   2    -0.148340365166E+03   -0.12183E-01   -0.12184E-01  1152   0.834E-02 0.296E-04
 gam= 0.202 trial= 0.666  step= 0.579 mean= 0.666
 gam= 0.228 g(H,U,f)=  0.182E-02 0.819E-04 0.140E-18 ort(H,U,f) =-0.216E-04 0.138E-04 0.185E-18
CGA:   3    -0.148342781930E+03   -0.24168E-02   -0.24165E-02  1152   0.190E-02-0.781E-05
 gam= 0.228 trial= 0.662  step= 0.506 mean= 0.662
 gam= 0.191 g(H,U,f)=  0.343E-03 0.203E-04 0.272E-19 ort(H,U,f) =-0.378E-04 0.372E-04 0.810E-19
CGA:   4    -0.148343261842E+03   -0.47991E-03   -0.47984E-03  1152   0.363E-03-0.590E-06
 gam= 0.191 trial= 0.654  step= 0.596 mean= 0.654
 gam= 0.249 g(H,U,f)=  0.813E-04 0.899E-05 0.287E-19 ort(H,U,f) =-0.167E-04 0.173E-04 0.475E-19
CGA:   5    -0.148343370140E+03   -0.10830E-03   -0.10831E-03  1152   0.903E-04 0.613E-06
 gam= 0.249 trial= 0.651  step= 0.680 mean= 0.651
 gam= 0.310 g(H,U,f)=  0.249E-04 0.301E-05 0.159E-19 ort(H,U,f) =-0.727E-05 0.720E-05 0.318E-19
CGA:   6    -0.148343400911E+03   -0.30772E-04   -0.30773E-04  1152   0.279E-04-0.697E-07
 gam= 0.310 trial= 0.653  step= 0.736 mean= 0.653
 gam= 0.313 g(H,U,f)=  0.825E-05 0.492E-06 0.255E-20 ort(H,U,f) =-0.199E-05 0.169E-05 0.106E-19
CGA:   7    -0.148343411179E+03   -0.10267E-04   -0.10279E-04  1152   0.874E-05-0.294E-06
 gam= 0.313 trial= 0.657  step= 0.725 mean= 0.657
 gam= 0.219 g(H,U,f)=  0.186E-05 0.494E-07 0.460E-21 ort(H,U,f) =-0.252E-06 0.321E-06 0.257E-20
CGA:   8    -0.148343414315E+03   -0.31365E-05   -0.31344E-05  1152   0.191E-05 0.693E-07
 gam= 0.219 trial= 0.660  step= 0.717 mean= 0.660
 final diagonalization
  18 F= -.14834341E+03 E0= -.14834341E+03  d E =-.238185E-02
 trial-energy change:   -0.002382  1 .order   -0.002383   -0.003244   -0.001522
 step:   0.3439(harm=  0.3439)  dis= 0.00685  next Energy=  -148.344088 (dE=-0.306E-02)
 bond charge predicted
 wavefunctions rotated
       N       E                     dE             d eps       ncg     rms          ort
 gam= 0.000 g(H,U,f)=  0.319E-01 0.422E-03 0.460E-19 ort(H,U,f) = 0.000E+00 0.000E+00 0.000E+00
SDA:   1    -0.148332181348E+03    0.11230E-01    0.00000E+00  1152   0.323E-01 0.000E+00
 gam= 0.000 trial= 0.663  step= 0.589 mean= 0.663
 gam= 0.202 g(H,U,f)=  0.639E-02 0.118E-03 0.432E-18 ort(H,U,f) = 0.208E-03-0.181E-03-0.153E-18
CGA:   2    -0.148341699924E+03   -0.95186E-02   -0.95195E-02  1152   0.651E-02 0.269E-04
 gam= 0.202 trial= 0.659  step= 0.579 mean= 0.659
 gam= 0.227 g(H,U,f)=  0.141E-02 0.638E-04 0.304E-18 ort(H,U,f) =-0.174E-04 0.105E-04 0.402E-18
CGA:   3    -0.148343587004E+03   -0.18871E-02   -0.18868E-02  1152   0.147E-02-0.694E-05
 gam= 0.227 trial= 0.655  step= 0.507 mean= 0.655
 gam= 0.190 g(H,U,f)=  0.264E-03 0.157E-04 0.579E-19 ort(H,U,f) =-0.292E-04 0.287E-04 0.173E-18
CGA:   4    -0.148343960743E+03   -0.37374E-03   -0.37369E-03  1152   0.280E-03-0.503E-06
 gam= 0.190 trial= 0.648  step= 0.598 mean= 0.648
 gam= 0.250 g(H,U,f)=  0.630E-04 0.698E-05 0.601E-19 ort(H,U,f) =-0.128E-04 0.134E-04 0.992E-19
CGA:   5    -0.148344044374E+03   -0.83631E-04   -0.83645E-04  1152   0.700E-04 0.529E-06
 gam= 0.250 trial= 0.645  step= 0.682 mean= 0.645
 gam= 0.312 g(H,U,f)=  0.195E-04 0.232E-05 0.325E-19 ort(H,U,f) =-0.564E-05 0.559E-05 0.654E-19
CGA:   6    -0.148344068290E+03   -0.23916E-04   -0.23917E-04  1152   0.218E-04-0.536E-07
 gam= 0.312 trial= 0.647  step= 0.737 mean= 0.647
 gam= 0.314 g(H,U,f)=  0.649E-05 0.375E-06 0.509E-20 ort(H,U,f) =-0.156E-05 0.130E-05 0.215E-19
CGA:   7    -0.148344076322E+03   -0.80315E-05   -0.80430E-05  1152   0.687E-05-0.258E-06
 gam= 0.314 trial= 0.652  step= 0.723 mean= 0.652
 gam= 0.218 g(H,U,f)=  0.146E-05 0.364E-07 0.897E-21 ort(H,U,f) =-0.179E-06 0.242E-06 0.511E-20
CGA:   8    -0.148344078778E+03   -0.24564E-05   -0.24541E-05  1152   0.150E-05 0.631E-07
 gam= 0.218 trial= 0.655  step= 0.717 mean= 0.655
 final diagonalization
  19 F= -.14834408E+03 E0= -.14834408E+03  d E =-.304631E-02
 curvature:  -0.85 expect dE=-0.847E-02 dE for cont linesearch -0.935E-09
 trial: gam= 0.56395 g(F)=  0.660E-02 g(S)=  0.339E-02 ort =-0.983E-05 (trialstep = 0.215E+00)
 search vector abs. value=  0.379E-01
 bond charge predicted
 wavefunctions rotated
       N       E                     dE             d eps       ncg     rms          ort
 gam= 0.000 g(H,U,f)=  0.229E-01 0.274E-03 0.428E-19 ort(H,U,f) = 0.000E+00 0.000E+00 0.000E+00
SDA:   1    -0.148337606174E+03    0.64701E-02    0.00000E+00  1152   0.231E-01 0.000E+00
 gam= 0.000 trial= 0.658  step= 0.578 mean= 0.658
 gam= 0.183 g(H,U,f)=  0.414E-02 0.858E-04 0.182E-16 ort(H,U,f) = 0.941E-04-0.475E-04-0.106E-17
CGA:   2    -0.148344288504E+03   -0.66823E-02   -0.66841E-02  1152   0.423E-02 0.465E-04
 gam= 0.183 trial= 0.654  step= 0.581 mean= 0.654
 gam= 0.241 g(H,U,f)=  0.985E-03 0.348E-04 0.142E-16 ort(H,U,f) =-0.353E-04 0.263E-04 0.177E-16
CGA:   3    -0.148345520104E+03   -0.12316E-02   -0.12313E-02  1152   0.102E-02-0.895E-05
 gam= 0.241 trial= 0.651  step= 0.497 mean= 0.651
 gam= 0.191 g(H,U,f)=  0.182E-03 0.131E-04 0.302E-17 ort(H,U,f) =-0.276E-04 0.242E-04 0.758E-17
CGA:   4    -0.148345773104E+03   -0.25300E-03   -0.25273E-03  1152   0.195E-03-0.335E-05
 gam= 0.191 trial= 0.643  step= 0.606 mean= 0.643
 gam= 0.253 g(H,U,f)=  0.443E-04 0.499E-05 0.176E-17 ort(H,U,f) =-0.118E-04 0.107E-04 0.342E-17
CGA:   5    -0.148345831966E+03   -0.58863E-04   -0.58843E-04  1152   0.493E-04-0.106E-05
 gam= 0.253 trial= 0.641  step= 0.683 mean= 0.641
 gam= 0.317 g(H,U,f)=  0.142E-04 0.141E-05 0.810E-18 ort(H,U,f) =-0.456E-05 0.392E-05 0.176E-17
CGA:   6    -0.148345848716E+03   -0.16750E-04   -0.16763E-04  1152   0.157E-04-0.638E-06
 gam= 0.317 trial= 0.643  step= 0.732 mean= 0.643
 gam= 0.301 g(H,U,f)=  0.443E-05 0.277E-06 0.124E-18 ort(H,U,f) =-0.160E-05 0.106E-05 0.519E-18
CGA:   7    -0.148345854350E+03   -0.56344E-05   -0.56579E-05  1152   0.471E-05-0.537E-06
 gam= 0.301 trial= 0.648  step= 0.742 mean= 0.648
 gam= 0.216 g(H,U,f)=  0.996E-06 0.221E-07 0.160E-19 ort(H,U,f) =-0.222E-06 0.144E-06 0.101E-18
CGA:   8    -0.148345856032E+03   -0.16814E-05   -0.16849E-05  1152   0.102E-05-0.785E-07
 gam= 0.216 trial= 0.652  step= 0.693 mean= 0.652
 final diagonalization
  20 F= -.14834586E+03 E0= -.14834586E+03  d E =-.177725E-02
 trial-energy change:   -0.001777  1 .order   -0.001779   -0.002145   -0.001412
 step:   0.6293(harm=  0.6293)  dis= 0.00887  next Energy=  -148.347220 (dE=-0.314E-02)
 bond charge predicted
 wavefunctions rotated
       N       E                     dE             d eps       ncg     rms          ort
 gam= 0.000 g(H,U,f)=  0.852E-01 0.102E-02 0.136E-17 ort(H,U,f) = 0.000E+00 0.000E+00 0.000E+00
SDA:   1    -0.148316435520E+03    0.29419E-01    0.00000E+00  1152   0.863E-01 0.000E+00
 gam= 0.000 trial= 0.654  step= 0.578 mean= 0.654
 gam= 0.183 g(H,U,f)=  0.155E-01 0.327E-03 0.671E-15 ort(H,U,f) = 0.261E-03-0.177E-03-0.422E-16
CGA:   2    -0.148341355354E+03   -0.24920E-01   -0.24922E-01  1152   0.158E-01 0.833E-04
 gam= 0.183 trial= 0.651  step= 0.580 mean= 0.651
 gam= 0.240 g(H,U,f)=  0.367E-02 0.131E-03 0.632E-15 ort(H,U,f) =-0.118E-03 0.101E-03 0.790E-15
CGA:   3    -0.148345943208E+03   -0.45879E-02   -0.45874E-02  1152   0.380E-02-0.169E-04
 gam= 0.240 trial= 0.647  step= 0.497 mean= 0.647
 gam= 0.191 g(H,U,f)=  0.676E-03 0.494E-04 0.111E-15 ort(H,U,f) =-0.986E-04 0.915E-04 0.278E-15
CGA:   4    -0.148346887051E+03   -0.94384E-03   -0.94325E-03  1152   0.726E-03-0.702E-05
 gam= 0.191 trial= 0.640  step= 0.606 mean= 0.640
 gam= 0.253 g(H,U,f)=  0.165E-03 0.189E-04 0.648E-16 ort(H,U,f) =-0.425E-04 0.406E-04 0.126E-15
CGA:   5    -0.148347106436E+03   -0.21938E-03   -0.21935E-03  1152   0.184E-03-0.199E-05
 gam= 0.253 trial= 0.638  step= 0.680 mean= 0.638
 gam= 0.315 g(H,U,f)=  0.523E-04 0.542E-05 0.298E-16 ort(H,U,f) =-0.161E-04 0.149E-04 0.644E-16
CGA:   6    -0.148347168618E+03   -0.62182E-04   -0.62207E-04  1152   0.578E-04-0.118E-05
 gam= 0.315 trial= 0.640  step= 0.725 mean= 0.640
 gam= 0.294 g(H,U,f)=  0.159E-04 0.109E-05 0.456E-17 ort(H,U,f) =-0.519E-05 0.414E-05 0.185E-16
CGA:   7    -0.148347189382E+03   -0.20764E-04   -0.20809E-04  1152   0.170E-04-0.104E-05
 gam= 0.294 trial= 0.644  step= 0.746 mean= 0.644
 gam= 0.220 g(H,U,f)=  0.364E-05 0.938E-07 0.621E-18 ort(H,U,f) =-0.767E-06 0.596E-06 0.373E-17
CGA:   8    -0.148347195593E+03   -0.62110E-05   -0.62196E-05  1152   0.373E-05-0.171E-06
 gam= 0.220 trial= 0.649  step= 0.706 mean= 0.649
 gam= 0.204 g(H,U,f)=  0.746E-06 0.154E-07 0.899E-19 ort(H,U,f) = 0.867E-08 0.596E-07 0.564E-18
CGA:   9    -0.148347196900E+03   -0.13071E-05   -0.13052E-05  1152   0.761E-06 0.682E-07
 gam= 0.204 trial= 0.652  step= 0.735 mean= 0.652
 final diagonalization
  21 F= -.14834720E+03 E0= -.14834720E+03  d E =-.311812E-02
 curvature:  -1.19 expect dE=-0.201E-01 dE for cont linesearch -0.298E-06
 trial: gam= 1.68915 g(F)=  0.148E-01 g(S)=  0.206E-02 ort =-0.972E-04 (trialstep = 0.905E-01)
 search vector abs. value=  0.124E+00
 bond charge predicted
 wavefunctions rotated
       N       E                     dE             d eps       ncg     rms          ort
 gam= 0.000 g(H,U,f)=  0.134E-01 0.156E-03 0.126E-18 ort(H,U,f) = 0.000E+00 0.000E+00 0.000E+00
SDA:   1    -0.148344011452E+03    0.31841E-02    0.00000E+00  1152   0.135E-01 0.000E+00
 gam= 0.000 trial= 0.656  step= 0.549 mean= 0.656
 gam= 0.172 g(H,U,f)=  0.226E-02 0.708E-04 0.271E-15 ort(H,U,f) = 0.578E-04-0.186E-04-0.678E-17
CGA:   2    -0.148347720552E+03   -0.37091E-02   -0.37111E-02  1152   0.233E-02 0.392E-04
 gam= 0.172 trial= 0.651  step= 0.558 mean= 0.651
 gam= 0.243 g(H,U,f)=  0.542E-03 0.226E-04 0.266E-15 ort(H,U,f) =-0.297E-04 0.243E-04 0.295E-15
CGA:   3    -0.148348372441E+03   -0.65189E-03   -0.65165E-03  1152   0.565E-03-0.540E-05
 gam= 0.243 trial= 0.646  step= 0.515 mean= 0.646
 gam= 0.199 g(H,U,f)=  0.102E-03 0.101E-04 0.604E-16 ort(H,U,f) =-0.224E-04 0.189E-04 0.145E-15
CGA:   4    -0.148348517613E+03   -0.14517E-03   -0.14494E-03  1152   0.112E-03-0.351E-05
 gam= 0.199 trial= 0.640  step= 0.630 mean= 0.640
 gam= 0.281 g(H,U,f)=  0.276E-04 0.401E-05 0.297E-16 ort(H,U,f) =-0.101E-04 0.860E-05 0.616E-16
CGA:   5    -0.148348552779E+03   -0.35166E-04   -0.35158E-04  1152   0.316E-04-0.150E-05
 gam= 0.281 trial= 0.639  step= 0.690 mean= 0.639
 gam= 0.327 g(H,U,f)=  0.940E-05 0.907E-06 0.132E-16 ort(H,U,f) =-0.356E-05 0.292E-05 0.307E-16
CGA:   6    -0.148348563510E+03   -0.10731E-04   -0.10747E-04  1152   0.103E-04-0.639E-06
 gam= 0.327 trial= 0.642  step= 0.741 mean= 0.642
 gam= 0.285 g(H,U,f)=  0.280E-05 0.138E-06 0.176E-17 ort(H,U,f) =-0.116E-05 0.668E-06 0.815E-17
CGA:   7    -0.148348567228E+03   -0.37176E-05   -0.37418E-05  1152   0.293E-05-0.488E-06
 gam= 0.285 trial= 0.647  step= 0.731 mean= 0.647
 gam= 0.207 g(H,U,f)=  0.598E-06 0.102E-07 0.173E-18 ort(H,U,f) =-0.118E-06 0.643E-07 0.128E-17
CGA:   8    -0.148348568248E+03   -0.10199E-05   -0.10223E-05  1152   0.608E-06-0.533E-07
 gam= 0.207 trial= 0.651  step= 0.643 mean= 0.651
 final diagonalization
  22 F= -.14834857E+03 E0= -.14834857E+03  d E =-.137135E-02
 ZBRENT: can't locate minimum, use default step
 trial-energy change:   -0.001371  1 .order   -0.001371   -0.001508   -0.001235
 step:   0.3621(harm=  0.5003)  dis= 0.00959  next Energy=  -148.351363 (dE=-0.417E-02)
 bond charge predicted
 wavefunctions rotated
       N       E                     dE             d eps       ncg     rms          ort
 gam= 0.000 g(H,U,f)=  0.120E+00 0.140E-02 0.424E-17 ort(H,U,f) = 0.000E+00 0.000E+00 0.000E+00
SDA:   1    -0.148309912287E+03    0.38655E-01    0.00000E+00  1152   0.122E+00 0.000E+00
 gam= 0.000 trial= 0.651  step= 0.550 mean= 0.651
 gam= 0.173 g(H,U,f)=  0.204E-01 0.662E-03 0.962E-14 ort(H,U,f) = 0.264E-03-0.167E-03-0.314E-15
CGA:   2    -0.148343408671E+03   -0.33496E-01   -0.33499E-01  1152   0.211E-01 0.973E-04
 gam= 0.173 trial= 0.646  step= 0.557 mean= 0.646
 gam= 0.240 g(H,U,f)=  0.485E-02 0.209E-03 0.370E-14 ort(H,U,f) =-0.245E-03 0.229E-03 0.414E-14
CGA:   3    -0.148349280360E+03   -0.58717E-02   -0.58713E-02  1152   0.506E-02-0.162E-04
 gam= 0.240 trial= 0.641  step= 0.515 mean= 0.641
 gam= 0.198 g(H,U,f)=  0.907E-03 0.920E-04 0.198E-14 ort(H,U,f) =-0.186E-03 0.174E-03 0.473E-14
CGA:   4    -0.148350583406E+03   -0.13030E-02   -0.13022E-02  1152   0.999E-03-0.120E-04
 gam= 0.198 trial= 0.635  step= 0.630 mean= 0.635
 gam= 0.280 g(H,U,f)=  0.243E-03 0.368E-04 0.917E-15 ort(H,U,f) =-0.831E-04 0.787E-04 0.189E-14
CGA:   5    -0.148350897577E+03   -0.31417E-03   -0.31416E-03  1152   0.280E-03-0.441E-05
 gam= 0.280 trial= 0.635  step= 0.685 mean= 0.635
 gam= 0.323 g(H,U,f)=  0.817E-04 0.854E-05 0.374E-15 ort(H,U,f) =-0.290E-04 0.271E-04 0.865E-15
CGA:   6    -0.148350992858E+03   -0.95281E-04   -0.95327E-04  1152   0.903E-04-0.183E-05
 gam= 0.323 trial= 0.637  step= 0.725 mean= 0.637
 gam= 0.274 g(H,U,f)=  0.233E-04 0.140E-05 0.479E-16 ort(H,U,f) =-0.804E-05 0.655E-05 0.210E-15
CGA:   7    -0.148351025319E+03   -0.32462E-04   -0.32527E-04  1152   0.247E-04-0.149E-05
 gam= 0.274 trial= 0.642  step= 0.738 mean= 0.642
 gam= 0.214 g(H,U,f)=  0.517E-05 0.120E-06 0.538E-17 ort(H,U,f) =-0.950E-06 0.767E-06 0.353E-16
CGA:   8    -0.148351034287E+03   -0.89683E-05   -0.89771E-05  1152   0.529E-05-0.183E-06
 gam= 0.214 trial= 0.646  step= 0.691 mean= 0.646
 gam= 0.206 g(H,U,f)=  0.106E-05 0.268E-07 0.849E-18 ort(H,U,f) = 0.119E-06 0.725E-07 0.531E-17
CGA:   9    -0.148351036105E+03   -0.18174E-05   -0.18130E-05  1152   0.109E-05 0.192E-06
 gam= 0.206 trial= 0.649  step= 0.723 mean= 0.649
 final diagonalization
  23 F= -.14835104E+03 E0= -.14835104E+03  d E =-.383920E-02
 curvature:  -1.66 expect dE=-0.589E-02 dE for cont linesearch -0.275E-03
 ZBRENT: extrapolating
 opt :   0.4977  next Energy=  -148.351344 (dE=-0.415E-02)
 bond charge predicted
 wavefunctions rotated
       N       E                     dE             d eps       ncg     rms          ort
 gam= 0.000 g(H,U,f)=  0.300E-01 0.351E-03 0.936E-18 ort(H,U,f) = 0.000E+00 0.000E+00 0.000E+00
SDA:   1    -0.148341086377E+03    0.99479E-02    0.00000E+00  1152   0.304E-01 0.000E+00
 gam= 0.000 trial= 0.652  step= 0.550 mean= 0.652
 gam= 0.172 g(H,U,f)=  0.508E-02 0.161E-03 0.379E-14 ort(H,U,f) = 0.100E-03-0.424E-04-0.746E-16
CGA:   2    -0.148349437089E+03   -0.83507E-02   -0.83534E-02  1152   0.524E-02 0.580E-04
 gam= 0.172 trial= 0.647  step= 0.558 mean= 0.647
 gam= 0.241 g(H,U,f)=  0.121E-02 0.515E-04 0.113E-14 ort(H,U,f) =-0.636E-04 0.555E-04 0.126E-14
CGA:   3    -0.148350902255E+03   -0.14652E-02   -0.14648E-02  1152   0.126E-02-0.813E-05
 gam= 0.241 trial= 0.643  step= 0.515 mean= 0.643
 gam= 0.198 g(H,U,f)=  0.228E-03 0.228E-04 0.829E-15 ort(H,U,f) =-0.484E-04 0.429E-04 0.198E-14
CGA:   4    -0.148351227654E+03   -0.32540E-03   -0.32504E-03  1152   0.251E-03-0.551E-05
 gam= 0.198 trial= 0.636  step= 0.630 mean= 0.636
 gam= 0.280 g(H,U,f)=  0.611E-04 0.911E-05 0.402E-15 ort(H,U,f) =-0.218E-04 0.195E-04 0.833E-15
CGA:   5    -0.148351306214E+03   -0.78560E-04   -0.78553E-04  1152   0.702E-04-0.228E-05
 gam= 0.280 trial= 0.636  step= 0.689 mean= 0.636
 gam= 0.325 g(H,U,f)=  0.207E-04 0.209E-05 0.176E-15 ort(H,U,f) =-0.762E-05 0.667E-05 0.407E-15
CGA:   6    -0.148351330145E+03   -0.23930E-04   -0.23955E-04  1152   0.228E-04-0.946E-06
 gam= 0.325 trial= 0.639  step= 0.734 mean= 0.639
 gam= 0.279 g(H,U,f)=  0.603E-05 0.328E-06 0.237E-16 ort(H,U,f) =-0.229E-05 0.157E-05 0.107E-15
CGA:   7    -0.148351338368E+03   -0.82235E-05   -0.82582E-05  1152   0.635E-05-0.722E-06
 gam= 0.279 trial= 0.643  step= 0.736 mean= 0.643
 gam= 0.210 g(H,U,f)=  0.131E-05 0.254E-07 0.248E-17 ort(H,U,f) =-0.250E-06 0.165E-06 0.173E-16
CGA:   8    -0.148351340628E+03   -0.22599E-05   -0.22639E-05  1152   0.134E-05-0.850E-07
 gam= 0.210 trial= 0.648  step= 0.668 mean= 0.648
 final diagonalization
  24 F= -.14835134E+03 E0= -.14835134E+03  d E =-.414373E-02
 curvature:  -1.86 expect dE=-0.746E-02 dE for cont linesearch -0.145E-07
 trial: gam= 0.21068 g(F)=  0.387E-02 g(S)=  0.144E-03 ort =-0.312E-04 (trialstep = 0.172E+00)
 search vector abs. value=  0.953E-02
 bond charge predicted
 wavefunctions rotated
       N       E                     dE             d eps       ncg     rms          ort
 gam= 0.000 g(H,U,f)=  0.350E-02 0.367E-04 0.105E-16 ort(H,U,f) = 0.000E+00 0.000E+00 0.000E+00
SDA:   1    -0.148350791617E+03    0.54675E-03    0.00000E+00  1152   0.354E-02 0.000E+00
 gam= 0.000 trial= 0.649  step= 0.544 mean= 0.649
 gam= 0.197 g(H,U,f)=  0.677E-03 0.192E-04 0.195E-15 ort(H,U,f) = 0.263E-04-0.463E-05 0.452E-16
CGA:   2    -0.148351752711E+03   -0.96109E-03   -0.96222E-03  1152   0.696E-03 0.217E-04
 gam= 0.197 trial= 0.644  step= 0.529 mean= 0.644
 gam= 0.233 g(H,U,f)=  0.155E-03 0.693E-05 0.869E-16 ort(H,U,f) =-0.802E-05 0.620E-05 0.803E-16
CGA:   3    -0.148351938094E+03   -0.18538E-03   -0.18528E-03  1152   0.162E-03-0.182E-05
 gam= 0.233 trial= 0.638  step= 0.550 mean= 0.638
 gam= 0.203 g(H,U,f)=  0.301E-04 0.280E-05 0.725E-16 ort(H,U,f) =-0.780E-05 0.528E-05 0.178E-15
CGA:   4    -0.148351982712E+03   -0.44618E-04   -0.44508E-04  1152   0.329E-04-0.251E-05
 gam= 0.203 trial= 0.634  step= 0.612 mean= 0.634
 gam= 0.292 g(H,U,f)=  0.845E-05 0.116E-05 0.334E-16 ort(H,U,f) =-0.311E-05 0.241E-05 0.746E-16
CGA:   5    -0.148351992644E+03   -0.99313E-05   -0.99236E-05  1152   0.960E-05-0.705E-06
 gam= 0.292 trial= 0.633  step= 0.654 mean= 0.633
 gam= 0.283 g(H,U,f)=  0.244E-05 0.277E-06 0.588E-17 ort(H,U,f) =-0.934E-06 0.882E-06 0.124E-16
CGA:   6    -0.148351995716E+03   -0.30721E-05   -0.30725E-05  1152   0.272E-05-0.518E-07
 gam= 0.283 trial= 0.634  step= 0.817 mean= 0.634
 gam= 0.324 g(H,U,f)=  0.841E-06 0.400E-07 0.934E-18 ort(H,U,f) =-0.435E-06 0.178E-06 0.374E-17
CGA:   7    -0.148351996798E+03   -0.10823E-05   -0.11059E-05  1152   0.881E-06-0.256E-06
 gam= 0.324 trial= 0.643  step= 0.754 mean= 0.643
 gam= 0.235 g(H,U,f)=  0.205E-06 0.212E-08 0.586E-19 ort(H,U,f) =-0.948E-07 0.109E-07 0.540E-18
CGA:   8    -0.148351997094E+03   -0.29629E-06   -0.30089E-06  1152   0.207E-06-0.838E-07
 gam= 0.235 trial= 0.648  step= 0.543 mean= 0.648
 final diagonalization
  25 F= -.14835200E+03 E0= -.14835200E+03  d E =-.656466E-03
 ZBRENT: can't locate minimum, use default step
 trial-energy change:   -0.000656  1 .order   -0.000656   -0.000689   -0.000623
 step:   0.6878(harm=  1.7751)  dis= 0.00558  next Energy=  -148.354899 (dE=-0.356E-02)
 bond charge predicted
 wavefunctions rotated
       N       E                     dE             d eps       ncg     rms          ort
 gam= 0.000 g(H,U,f)=  0.315E-01 0.328E-03 0.827E-16 ort(H,U,f) = 0.000E+00 0.000E+00 0.000E+00
SDA:   1    -0.148342684729E+03    0.93121E-02    0.00000E+00  1152   0.319E-01 0.000E+00
 gam= 0.000 trial= 0.643  step= 0.546 mean= 0.643
 gam= 0.199 g(H,U,f)=  0.615E-02 0.176E-03 0.164E-14 ort(H,U,f) = 0.105E-03-0.431E-04 0.369E-15
CGA:   2    -0.148351375458E+03   -0.86907E-02   -0.86933E-02  1152   0.633E-02 0.617E-04
 gam= 0.199 trial= 0.638  step= 0.525 mean= 0.638
 gam= 0.231 g(H,U,f)=  0.140E-02 0.635E-04 0.109E-14 ort(H,U,f) =-0.634E-04 0.576E-04 0.102E-14
CGA:   3    -0.148353041567E+03   -0.16661E-02   -0.16659E-02  1152   0.146E-02-0.580E-05
 gam= 0.231 trial= 0.633  step= 0.545 mean= 0.633
 gam= 0.201 g(H,U,f)=  0.269E-03 0.253E-04 0.235E-15 ort(H,U,f) =-0.562E-04 0.481E-04 0.570E-15
CGA:   4    -0.148353440022E+03   -0.39846E-03   -0.39810E-03  1152   0.295E-03-0.807E-05
 gam= 0.201 trial= 0.628  step= 0.608 mean= 0.628
 gam= 0.285 g(H,U,f)=  0.733E-04 0.107E-04 0.111E-15 ort(H,U,f) =-0.241E-04 0.220E-04 0.247E-15
CGA:   5    -0.148353529088E+03   -0.89066E-04   -0.89044E-04  1152   0.840E-04-0.211E-05
 gam= 0.285 trial= 0.627  step= 0.660 mean= 0.627
 gam= 0.287 g(H,U,f)=  0.215E-04 0.258E-05 0.739E-16 ort(H,U,f) =-0.823E-05 0.808E-05 0.154E-15
CGA:   6    -0.148353556606E+03   -0.27518E-04   -0.27521E-04  1152   0.241E-04-0.155E-06
 gam= 0.287 trial= 0.629  step= 0.775 mean= 0.629
 gam= 0.287 g(H,U,f)=  0.649E-05 0.429E-06 0.135E-16 ort(H,U,f) =-0.260E-05 0.184E-05 0.503E-16
CGA:   7    -0.148353565866E+03   -0.92600E-05   -0.93159E-05  1152   0.692E-05-0.765E-06
 gam= 0.287 trial= 0.636  step= 0.740 mean= 0.636
 gam= 0.230 g(H,U,f)=  0.156E-05 0.362E-07 0.145E-17 ort(H,U,f) =-0.502E-06 0.231E-06 0.929E-17
CGA:   8    -0.148353568333E+03   -0.24673E-05   -0.24814E-05  1152   0.159E-05-0.271E-06
 gam= 0.230 trial= 0.641  step= 0.637 mean= 0.641
 final diagonalization
  26 F= -.14835357E+03 E0= -.14835357E+03  d E =-.222771E-02
 curvature:  -1.14 expect dE=-0.433E-02 dE for cont linesearch -0.733E-03
 ZBRENT: increasing intervall
 opt :   1.7196  next Energy=  -148.354944 (dE=-0.360E-02)
 bond charge predicted
 wavefunctions rotated
       N       E                     dE             d eps       ncg     rms          ort
 gam= 0.000 g(H,U,f)=  0.126E+00 0.131E-02 0.279E-15 ort(H,U,f) = 0.000E+00 0.000E+00 0.000E+00
SDA:   1    -0.148311309938E+03    0.42256E-01    0.00000E+00  1152   0.128E+00 0.000E+00
 gam= 0.000 trial= 0.641  step= 0.546 mean= 0.641
 gam= 0.199 g(H,U,f)=  0.246E-01 0.722E-03 0.737E-14 ort(H,U,f) = 0.263E-03-0.170E-03 0.145E-14
CGA:   2    -0.148346155010E+03   -0.34845E-01   -0.34846E-01  1152   0.254E-01 0.934E-04
 gam= 0.199 trial= 0.636  step= 0.525 mean= 0.636
 gam= 0.230 g(H,U,f)=  0.557E-02 0.258E-03 0.890E-14 ort(H,U,f) =-0.248E-03 0.238E-03 0.847E-14
CGA:   3    -0.148352822050E+03   -0.66670E-02   -0.66672E-02  1152   0.583E-02-0.101E-04
 gam= 0.230 trial= 0.631  step= 0.545 mean= 0.631
 gam= 0.200 g(H,U,f)=  0.107E-02 0.102E-03 0.163E-14 ort(H,U,f) =-0.213E-03 0.195E-03 0.395E-14
CGA:   4    -0.148354410954E+03   -0.15889E-02   -0.15881E-02  1152   0.117E-02-0.174E-04
 gam= 0.200 trial= 0.627  step= 0.609 mean= 0.627
 gam= 0.285 g(H,U,f)=  0.290E-03 0.433E-04 0.809E-15 ort(H,U,f) =-0.930E-04 0.888E-04 0.179E-14
CGA:   5    -0.148354765870E+03   -0.35492E-03   -0.35488E-03  1152   0.333E-03-0.416E-05
 gam= 0.285 trial= 0.626  step= 0.662 mean= 0.626
 gam= 0.288 g(H,U,f)=  0.857E-04 0.104E-04 0.569E-15 ort(H,U,f) =-0.328E-04 0.325E-04 0.119E-14
CGA:   6    -0.148354875860E+03   -0.10999E-03   -0.10999E-03  1152   0.961E-04-0.250E-06
 gam= 0.288 trial= 0.627  step= 0.765 mean= 0.627
 gam= 0.279 g(H,U,f)=  0.251E-04 0.176E-05 0.104E-15 ort(H,U,f) =-0.912E-05 0.754E-05 0.385E-15
CGA:   7    -0.148354912489E+03   -0.36629E-04   -0.36738E-04  1152   0.268E-04-0.158E-05
 gam= 0.279 trial= 0.634  step= 0.734 mean= 0.634
 gam= 0.228 g(H,U,f)=  0.594E-05 0.169E-06 0.126E-16 ort(H,U,f) =-0.158E-05 0.103E-05 0.758E-16
CGA:   8    -0.148354922152E+03   -0.96632E-05   -0.96907E-05  1152   0.611E-05-0.548E-06
 gam= 0.228 trial= 0.639  step= 0.669 mean= 0.639
 gam= 0.193 g(H,U,f)=  0.114E-05 0.335E-07 0.297E-17 ort(H,U,f) = 0.165E-06 0.943E-07 0.153E-16
CGA:   9    -0.148354924160E+03   -0.20074E-05   -0.20036E-05  1152   0.118E-05 0.259E-06
 gam= 0.193 trial= 0.641  step= 0.733 mean= 0.641
 final diagonalization
  27 F= -.14835492E+03 E0= -.14835492E+03  d E =-.358353E-02
 curvature:  -2.14 expect dE=-0.301E-01 dE for cont linesearch -0.663E-05
 trial: gam= 3.46454 g(F)=  0.131E-01 g(S)=  0.993E-03 ort = 0.172E-03 (trialstep = 0.354E-01)
 search vector abs. value=  0.130E+00
 bond charge predicted
 wavefunctions rotated
       N       E                     dE             d eps       ncg     rms          ort
 gam= 0.000 g(H,U,f)=  0.242E-02 0.293E-04 0.121E-49 ort(H,U,f) = 0.000E+00 0.000E+00 0.000E+00
SDA:   1    -0.148354524347E+03    0.39780E-03    0.00000E+00  1152   0.245E-02 0.000E+00
 gam= 0.000 trial= 0.645  step= 0.577 mean= 0.645
 gam= 0.201 g(H,U,f)=  0.483E-03 0.114E-04 0.680E-31 ort(H,U,f) = 0.249E-04-0.656E-05 0.216E-32
CGA:   2    -0.148355231719E+03   -0.70737E-03   -0.70799E-03  1152   0.494E-03 0.183E-04
 gam= 0.201 trial= 0.642  step= 0.571 mean= 0.642
 gam= 0.230 g(H,U,f)=  0.109E-03 0.470E-05-0.101E-50 ort(H,U,f) =-0.499E-05 0.277E-05 0.000E+00
CGA:   3    -0.148355373787E+03   -0.14207E-03   -0.14199E-03  1152   0.114E-03-0.222E-05
 gam= 0.230 trial= 0.638  step= 0.527 mean= 0.638
 gam= 0.192 g(H,U,f)=  0.201E-04 0.165E-05-0.151E-31 ort(H,U,f) =-0.468E-05 0.297E-05-0.386E-31
CGA:   4    -0.148355403692E+03   -0.29905E-04   -0.29809E-04  1152   0.218E-04-0.172E-05
 gam= 0.192 trial= 0.633  step= 0.612 mean= 0.633
 gam= 0.252 g(H,U,f)=  0.484E-05 0.642E-06-0.112E-31 ort(H,U,f) =-0.183E-05 0.133E-05-0.223E-31
CGA:   5    -0.148355410256E+03   -0.65638E-05   -0.65584E-05  1152   0.548E-05-0.502E-06
 gam= 0.252 trial= 0.632  step= 0.684 mean= 0.632
 gam= 0.314 g(H,U,f)=  0.155E-05 0.171E-06-0.341E-52 ort(H,U,f) =-0.613E-06 0.484E-06 0.000E+00
CGA:   6    -0.148355412084E+03   -0.18287E-05   -0.18320E-05  1152   0.172E-05-0.129E-06
 gam= 0.314 trial= 0.634  step= 0.828 mean= 0.634
 gam= 0.375 g(H,U,f)=  0.618E-06 0.265E-07 0.158E-52 ort(H,U,f) =-0.338E-06 0.992E-07 0.000E+00
CGA:   7    -0.148355412757E+03   -0.67223E-06   -0.69549E-06  1152   0.644E-06-0.239E-06
 gam= 0.375 trial= 0.644  step= 0.743 mean= 0.644
 gam= 0.214 g(H,U,f)=  0.137E-06 0.134E-08 0.162E-34 ort(H,U,f) =-0.542E-07-0.935E-10 0.229E-33
CGA:   8    -0.148355412960E+03   -0.20357E-06   -0.20628E-06  1152   0.138E-06-0.543E-07
 gam= 0.214 trial= 0.649  step= 0.584 mean= 0.649
 final diagonalization
  28 F= -.14835541E+03 E0= -.14835541E+03  d E =-.488801E-03
 ZBRENT: can't locate minimum, use default step
 trial-energy change:   -0.000489  1 .order   -0.000489   -0.000520   -0.000457
 step:   0.1415(harm=  0.2928)  dis= 0.00430  next Energy=  -148.357075 (dE=-0.215E-02)
 bond charge predicted
 wavefunctions rotated
       N       E                     dE             d eps       ncg     rms          ort
 gam= 0.000 g(H,U,f)=  0.219E-01 0.264E-03 0.149E-48 ort(H,U,f) = 0.000E+00 0.000E+00 0.000E+00
SDA:   1    -0.148348475439E+03    0.69373E-02    0.00000E+00  1152   0.221E-01 0.000E+00
 gam= 0.000 trial= 0.646  step= 0.579 mean= 0.646
 gam= 0.204 g(H,U,f)=  0.440E-02 0.106E-03-0.953E-50 ort(H,U,f) = 0.114E-03-0.607E-04 0.000E+00
CGA:   2    -0.148354879841E+03   -0.64044E-02   -0.64060E-02  1152   0.451E-02 0.532E-04
 gam= 0.204 trial= 0.643  step= 0.566 mean= 0.643
 gam= 0.227 g(H,U,f)=  0.979E-03 0.430E-04-0.257E-50 ort(H,U,f) =-0.328E-04 0.260E-04 0.000E+00
CGA:   3    -0.148356157849E+03   -0.12780E-02   -0.12778E-02  1152   0.102E-02-0.679E-05
 gam= 0.227 trial= 0.639  step= 0.524 mean= 0.639
 gam= 0.187 g(H,U,f)=  0.176E-03 0.150E-04-0.753E-51 ort(H,U,f) =-0.327E-04 0.272E-04 0.000E+00
CGA:   4    -0.148356425817E+03   -0.26797E-03   -0.26765E-03  1152   0.191E-03-0.551E-05
 gam= 0.187 trial= 0.633  step= 0.615 mean= 0.633
 gam= 0.248 g(H,U,f)=  0.416E-04 0.587E-05 0.175E-30 ort(H,U,f) =-0.135E-04 0.120E-04 0.347E-30
CGA:   5    -0.148356484301E+03   -0.58484E-04   -0.58470E-04  1152   0.475E-04-0.147E-05
 gam= 0.248 trial= 0.632  step= 0.680 mean= 0.632
 gam= 0.311 g(H,U,f)=  0.132E-04 0.161E-05-0.120E-30 ort(H,U,f) =-0.483E-05 0.447E-05-0.248E-30
CGA:   6    -0.148356500326E+03   -0.16025E-04   -0.16034E-04  1152   0.148E-04-0.359E-06
 gam= 0.311 trial= 0.634  step= 0.765 mean= 0.634
 gam= 0.315 g(H,U,f)=  0.437E-05 0.293E-06 0.295E-52 ort(H,U,f) =-0.178E-05 0.112E-05 0.000E+00
CGA:   7    -0.148356505896E+03   -0.55706E-05   -0.56136E-05  1152   0.466E-05-0.659E-06
 gam= 0.315 trial= 0.641  step= 0.752 mean= 0.641
 gam= 0.220 g(H,U,f)=  0.101E-05 0.199E-07 0.168E-32 ort(H,U,f) =-0.301E-06 0.124E-06 0.123E-31
CGA:   8    -0.148356507560E+03   -0.16638E-05   -0.16737E-05  1152   0.103E-05-0.177E-06
 gam= 0.220 trial= 0.647  step= 0.672 mean= 0.647
 final diagonalization
  29 F= -.14835651E+03 E0= -.14835651E+03  d E =-.158340E-02
 curvature:  -0.85 expect dE=-0.359E-02 dE for cont linesearch -0.388E-03
 ZBRENT: increasing intervall
 opt :   0.3538  next Energy=  -148.357038 (dE=-0.211E-02)
 bond charge predicted
 wavefunctions rotated
       N       E                     dE             d eps       ncg     rms          ort
 gam= 0.000 g(H,U,f)=  0.875E-01 0.106E-02 0.458E-48 ort(H,U,f) = 0.000E+00 0.000E+00 0.000E+00
SDA:   1    -0.148324849402E+03    0.31656E-01    0.00000E+00  1152   0.885E-01 0.000E+00
 gam= 0.000 trial= 0.648  step= 0.580 mean= 0.648
 gam= 0.204 g(H,U,f)=  0.176E-01 0.432E-03-0.657E-50 ort(H,U,f) = 0.332E-03-0.242E-03 0.000E+00
CGA:   2    -0.148350518344E+03   -0.25669E-01   -0.25671E-01  1152   0.181E-01 0.899E-04
 gam= 0.204 trial= 0.644  step= 0.565 mean= 0.644
 gam= 0.226 g(H,U,f)=  0.390E-02 0.174E-03-0.859E-28 ort(H,U,f) =-0.120E-03 0.108E-03-0.971E-28
CGA:   3    -0.148355631465E+03   -0.51131E-02   -0.51129E-02  1152   0.408E-02-0.121E-04
 gam= 0.226 trial= 0.640  step= 0.524 mean= 0.640
 gam= 0.187 g(H,U,f)=  0.700E-03 0.606E-04 0.128E-28 ort(H,U,f) =-0.122E-03 0.110E-03 0.323E-28
CGA:   4    -0.148356700974E+03   -0.10695E-02   -0.10688E-02  1152   0.761E-03-0.117E-04
 gam= 0.187 trial= 0.635  step= 0.615 mean= 0.635
 gam= 0.248 g(H,U,f)=  0.165E-03 0.238E-04-0.606E-52 ort(H,U,f) =-0.515E-04 0.487E-04 0.000E+00
CGA:   5    -0.148356934272E+03   -0.23330E-03   -0.23327E-03  1152   0.189E-03-0.285E-05
 gam= 0.248 trial= 0.634  step= 0.680 mean= 0.634
 gam= 0.312 g(H,U,f)=  0.524E-04 0.653E-05-0.112E-52 ort(H,U,f) =-0.188E-04 0.181E-04 0.000E+00
CGA:   6    -0.148356998313E+03   -0.64041E-04   -0.64056E-04  1152   0.589E-04-0.644E-06
 gam= 0.312 trial= 0.636  step= 0.751 mean= 0.636
 gam= 0.304 g(H,U,f)=  0.167E-04 0.123E-05 0.621E-53 ort(H,U,f) =-0.596E-05 0.467E-05 0.000E+00
CGA:   7    -0.148357020289E+03   -0.21976E-04   -0.22049E-04  1152   0.179E-04-0.128E-05
 gam= 0.304 trial= 0.642  step= 0.749 mean= 0.642
 gam= 0.221 g(H,U,f)=  0.385E-05 0.965E-07 0.739E-53 ort(H,U,f) =-0.948E-06 0.600E-06 0.000E+00
CGA:   8    -0.148357026827E+03   -0.65383E-05   -0.65569E-05  1152   0.395E-05-0.348E-06
 gam= 0.221 trial= 0.647  step= 0.697 mean= 0.647
 gam= 0.194 g(H,U,f)=  0.745E-06 0.202E-07 0.523E-53 ort(H,U,f) = 0.746E-07 0.445E-07 0.000E+00
CGA:   9    -0.148357028180E+03   -0.13531E-05   -0.13499E-05  1152   0.765E-06 0.119E-06
 gam= 0.194 trial= 0.650  step= 0.744 mean= 0.650
 final diagonalization
  30 F= -.14835703E+03 E0= -.14835703E+03  d E =-.210402E-02
 curvature:  -1.16 expect dE=-0.659E-02 dE for cont linesearch -0.686E-04
 ZBRENT: bracketing found
 ZBRENT: interpolating
 opt :   0.2977  next Energy=  -148.357106 (dE=-0.218E-02)
 bond charge predicted
 wavefunctions rotated
       N       E                     dE             d eps       ncg     rms          ort
 gam= 0.000 g(H,U,f)=  0.613E-02 0.736E-04 0.423E-52 ort(H,U,f) = 0.000E+00 0.000E+00 0.000E+00
SDA:   1    -0.148354845505E+03    0.21813E-02    0.00000E+00  1152   0.620E-02 0.000E+00
 gam= 0.000 trial= 0.654  step= 0.584 mean= 0.654
 gam= 0.206 g(H,U,f)=  0.125E-02 0.293E-04-0.237E-52 ort(H,U,f) =-0.112E-04-0.179E-04 0.000E+00
CGA:   2    -0.148356655942E+03   -0.18104E-02   -0.18094E-02  1152   0.128E-02-0.291E-04
 gam= 0.206 trial= 0.651  step= 0.560 mean= 0.651
 gam= 0.222 g(H,U,f)=  0.272E-03 0.119E-04-0.144E-29 ort(H,U,f) =-0.365E-05 0.712E-05-0.162E-29
CGA:   3    -0.148357012393E+03   -0.35645E-03   -0.35660E-03  1152   0.284E-03 0.348E-05
 gam= 0.222 trial= 0.646  step= 0.519 mean= 0.646
 gam= 0.182 g(H,U,f)=  0.476E-04 0.415E-05-0.747E-53 ort(H,U,f) =-0.468E-05 0.754E-05 0.000E+00
CGA:   4    -0.148357086087E+03   -0.73694E-04   -0.73876E-04  1152   0.517E-04 0.286E-05
 gam= 0.182 trial= 0.640  step= 0.612 mean= 0.640
 gam= 0.244 g(H,U,f)=  0.109E-04 0.166E-05 0.155E-30 ort(H,U,f) =-0.255E-05 0.334E-05 0.304E-30
CGA:   5    -0.148357102068E+03   -0.15980E-04   -0.15991E-04  1152   0.126E-04 0.786E-06
 gam= 0.244 trial= 0.639  step= 0.677 mean= 0.639
 gam= 0.310 g(H,U,f)=  0.343E-05 0.472E-06-0.133E-53 ort(H,U,f) =-0.108E-05 0.127E-05 0.000E+00
CGA:   6    -0.148357106404E+03   -0.43360E-05   -0.43325E-05  1152   0.391E-05 0.192E-06
 gam= 0.310 trial= 0.640  step= 0.688 mean= 0.640
 gam= 0.269 g(H,U,f)=  0.942E-06 0.108E-06 0.544E-54 ort(H,U,f) =-0.881E-07 0.388E-06 0.000E+00
CGA:   7    -0.148357107774E+03   -0.13709E-05   -0.13638E-05  1152   0.105E-05 0.300E-06
 gam= 0.269 trial= 0.643  step= 0.709 mean= 0.643
 gam= 0.227 g(H,U,f)=  0.222E-06 0.168E-07-0.311E-32 ort(H,U,f) = 0.287E-07 0.809E-07-0.141E-31
CGA:   8    -0.148357108179E+03   -0.40426E-06   -0.40094E-06  1152   0.239E-06 0.110E-06
 gam= 0.227 trial= 0.646  step= 0.827 mean= 0.646
 final diagonalization
  31 F= -.14835711E+03 E0= -.14835711E+03  d E =-.218402E-02
 curvature:  -1.31 expect dE=-0.446E-02 dE for cont linesearch -0.861E-08
 trial: gam= 0.30434 g(F)=  0.248E-02 g(S)=  0.919E-03 ort =-0.292E-04 (trialstep = 0.878E-01)
 search vector abs. value=  0.154E-01
 bond charge predicted
 wavefunctions rotated
       N       E                     dE             d eps       ncg     rms          ort
 gam= 0.000 g(H,U,f)=  0.191E-02 0.284E-04 0.836E-52 ort(H,U,f) = 0.000E+00 0.000E+00 0.000E+00
SDA:   1    -0.148356669496E+03    0.43828E-03    0.00000E+00  1152   0.194E-02 0.000E+00
 gam= 0.000 trial= 0.655  step= 0.581 mean= 0.655
 gam= 0.193 g(H,U,f)=  0.366E-03 0.934E-05-0.109E-29 ort(H,U,f) = 0.257E-04-0.783E-05 0.920E-32
CGA:   2    -0.148357233149E+03   -0.56365E-03   -0.56431E-03  1152   0.375E-03 0.178E-04
 gam= 0.193 trial= 0.651  step= 0.588 mean= 0.651
 gam= 0.226 g(H,U,f)=  0.799E-04 0.481E-05 0.820E-30 ort(H,U,f) =-0.267E-05 0.155E-05 0.109E-29
CGA:   3    -0.148357344346E+03   -0.11120E-03   -0.11116E-03  1152   0.847E-04-0.112E-05
 gam= 0.226 trial= 0.648  step= 0.536 mean= 0.648
 gam= 0.197 g(H,U,f)=  0.153E-04 0.136E-05-0.198E-53 ort(H,U,f) =-0.382E-05 0.234E-05 0.000E+00
CGA:   4    -0.148357367049E+03   -0.22702E-04   -0.22618E-04  1152   0.167E-04-0.149E-05
 gam= 0.197 trial= 0.643  step= 0.619 mean= 0.643
 gam= 0.237 g(H,U,f)=  0.346E-05 0.487E-06-0.945E-54 ort(H,U,f) =-0.139E-05 0.104E-05 0.000E+00
CGA:   5    -0.148357372129E+03   -0.50805E-05   -0.50765E-05  1152   0.395E-05-0.341E-06
 gam= 0.237 trial= 0.641  step= 0.715 mean= 0.641
 gam= 0.316 g(H,U,f)=  0.111E-05 0.133E-06-0.154E-54 ort(H,U,f) =-0.484E-06 0.359E-06 0.000E+00
CGA:   6    -0.148357373508E+03   -0.13790E-05   -0.13835E-05  1152   0.125E-05-0.125E-06
 gam= 0.316 trial= 0.645  step= 0.854 mean= 0.645
[...]
 gam= 0.276 g(H,U,f)=  0.855E-06 0.140E-06 0.883E-24 ort(H,U,f) =-0.341E-06 0.325E-06 0.155E-23
CGA:   6    -0.148445914282E+03   -0.11969E-05   -0.11973E-05  1152   0.995E-06-0.162E-07
 gam= 0.276 trial= 0.635  step= 0.758 mean= 0.635
 gam= 0.316 g(H,U,f)=  0.289E-06 0.263E-07 0.263E-24 ort(H,U,f) =-0.117E-06 0.935E-07 0.711E-24
CGA:   7    -0.148445914655E+03   -0.37386E-06   -0.37533E-06  1152   0.315E-06-0.232E-07
 gam= 0.316 trial= 0.641  step= 0.798 mean= 0.641
 gam= 0.264 g(H,U,f)=  0.803E-07 0.274E-08 0.304E-25 ort(H,U,f) =-0.371E-07 0.163E-07 0.165E-24
CGA:   8    -0.148445914776E+03   -0.12082E-06   -0.12267E-06  1152   0.831E-07-0.209E-07
 gam= 0.264 trial= 0.649  step= 0.758 mean= 0.649
 final diagonalization
 238 F= -.14844591E+03 E0= -.14844591E+03  d E =-.209528E-04
 trial-energy change:   -0.000021  1 .order   -0.000020   -0.000026   -0.000015
 step:   0.8023(harm=  0.8023)  dis= 0.00242  next Energy=  -148.445923 (dE=-0.295E-04)
 bond charge predicted
 wavefunctions rotated
       N       E                     dE             d eps       ncg     rms          ort
 gam= 0.000 g(H,U,f)=  0.380E-02 0.322E-04 0.526E-22 ort(H,U,f) = 0.000E+00 0.000E+00 0.000E+00
SDA:   1    -0.148444322571E+03    0.15921E-02    0.00000E+00  1152   0.383E-02 0.000E+00
 gam= 0.000 trial= 0.654  step= 0.683 mean= 0.654
 gam= 0.243 g(H,U,f)=  0.917E-03 0.138E-04 0.603E-22 ort(H,U,f) = 0.233E-04-0.173E-04-0.602E-22
CGA:   2    -0.148445630213E+03   -0.13076E-02   -0.13076E-02  1152   0.931E-03 0.603E-05
 gam= 0.243 trial= 0.656  step= 0.523 mean= 0.656
 gam= 0.175 g(H,U,f)=  0.159E-03 0.397E-05 0.267E-22 ort(H,U,f) =-0.364E-05 0.318E-05 0.303E-22
CGA:   3    -0.148445873920E+03   -0.24371E-03   -0.24368E-03  1152   0.163E-03-0.460E-06
 gam= 0.175 trial= 0.649  step= 0.487 mean= 0.649
 gam= 0.181 g(H,U,f)=  0.281E-04 0.148E-05 0.636E-23 ort(H,U,f) =-0.289E-05 0.234E-05 0.154E-22
CGA:   4    -0.148445913683E+03   -0.39763E-04   -0.39718E-04  1152   0.295E-04-0.556E-06
 gam= 0.181 trial= 0.641  step= 0.578 mean= 0.641
 gam= 0.198 g(H,U,f)=  0.518E-05 0.667E-06 0.319E-23 ort(H,U,f) =-0.134E-05 0.125E-05 0.641E-23
CGA:   5    -0.148445922194E+03   -0.85107E-05   -0.85077E-05  1152   0.585E-05-0.945E-07
 gam= 0.198 trial= 0.638  step= 0.665 mean= 0.638
 gam= 0.276 g(H,U,f)=  0.138E-05 0.229E-06 0.200E-23 ort(H,U,f) =-0.547E-06 0.529E-06 0.351E-23
CGA:   6    -0.148445924133E+03   -0.19389E-05   -0.19392E-05  1152   0.161E-05-0.179E-07
 gam= 0.276 trial= 0.639  step= 0.754 mean= 0.639
 gam= 0.314 g(H,U,f)=  0.463E-06 0.435E-07 0.601E-24 ort(H,U,f) =-0.182E-06 0.154E-06 0.162E-23
CGA:   7    -0.148445924737E+03   -0.60417E-06   -0.60604E-06  1152   0.507E-06-0.286E-07
 gam= 0.314 trial= 0.645  step= 0.790 mean= 0.645
 gam= 0.260 g(H,U,f)=  0.127E-06 0.481E-08 0.734E-25 ort(H,U,f) =-0.541E-07 0.279E-07 0.385E-24
CGA:   8    -0.148445924932E+03   -0.19484E-06   -0.19660E-06  1152   0.132E-06-0.262E-07
 gam= 0.260 trial= 0.652  step= 0.752 mean= 0.652
 final diagonalization
 239 F= -.14844592E+03 E0= -.14844592E+03  d E =-.311085E-04
 curvature:  -7.05 expect dE=-0.796E-03 dE for cont linesearch -0.781E-08
 trial: gam= 1.49424 g(F)=  0.109E-03 g(S)=  0.397E-05 ort = 0.120E-05 (trialstep = 0.191E+00)
 search vector abs. value=  0.300E-02
 bond charge predicted
 wavefunctions rotated
       N       E                     dE             d eps       ncg     rms          ort
 gam= 0.000 g(H,U,f)=  0.155E-02 0.134E-04 0.194E-22 ort(H,U,f) = 0.000E+00 0.000E+00 0.000E+00
SDA:   1    -0.148445287708E+03    0.63703E-03    0.00000E+00  1152   0.156E-02 0.000E+00
 gam= 0.000 trial= 0.657  step= 0.685 mean= 0.657
 gam= 0.246 g(H,U,f)=  0.378E-03 0.604E-05 0.139E-22 ort(H,U,f) = 0.114E-04-0.692E-05-0.167E-22
CGA:   2    -0.148445821712E+03   -0.53400E-03   -0.53394E-03  1152   0.384E-03 0.449E-05
 gam= 0.246 trial= 0.659  step= 0.515 mean= 0.659
 gam= 0.176 g(H,U,f)=  0.660E-04 0.156E-05 0.145E-22 ort(H,U,f) =-0.187E-05 0.134E-05 0.103E-22
CGA:   3    -0.148445921002E+03   -0.99291E-04   -0.99253E-04  1152   0.675E-04-0.534E-06
 gam= 0.176 trial= 0.651  step= 0.491 mean= 0.651
 gam= 0.178 g(H,U,f)=  0.114E-04 0.626E-06 0.241E-23 ort(H,U,f) =-0.136E-05 0.961E-06 0.659E-23
CGA:   4    -0.148445937580E+03   -0.16578E-04   -0.16545E-04  1152   0.120E-04-0.404E-06
 gam= 0.178 trial= 0.643  step= 0.582 mean= 0.643
 gam= 0.202 g(H,U,f)=  0.214E-05 0.277E-06 0.121E-23 ort(H,U,f) =-0.654E-06 0.511E-06 0.254E-23
CGA:   5    -0.148445941054E+03   -0.34739E-05   -0.34694E-05  1152   0.242E-05-0.144E-06
 gam= 0.202 trial= 0.640  step= 0.649 mean= 0.640
 gam= 0.266 g(H,U,f)=  0.552E-06 0.923E-07 0.105E-23 ort(H,U,f) =-0.212E-06 0.217E-06 0.161E-23
CGA:   6    -0.148445941830E+03   -0.77594E-06   -0.77592E-06  1152   0.645E-06 0.451E-08
 gam= 0.266 trial= 0.641  step= 0.746 mean= 0.641
 gam= 0.312 g(H,U,f)=  0.181E-06 0.200E-07 0.291E-24 ort(H,U,f) =-0.773E-07 0.663E-07 0.776E-24
CGA:   7    -0.148445942070E+03   -0.24008E-06   -0.24090E-06  1152   0.201E-06-0.110E-07
 gam= 0.312 trial= 0.646  step= 0.851 mean= 0.646
 gam= 0.302 g(H,U,f)=  0.591E-07 0.167E-08 0.366E-25 ort(H,U,f) =-0.359E-07 0.103E-07 0.189E-24
CGA:   8    -0.148445942151E+03   -0.81498E-07   -0.84122E-07  1152   0.607E-07-0.257E-07
 gam= 0.302 trial= 0.656  step= 0.685 mean= 0.656
 final diagonalization
 240 F= -.14844594E+03 E0= -.14844594E+03  d E =-.172195E-04
 trial-energy change:   -0.000017  1 .order   -0.000017   -0.000022   -0.000012
 step:   0.4074(harm=  0.4074)  dis= 0.00189  next Energy=  -148.445948 (dE=-0.234E-04)
 bond charge predicted
 wavefunctions rotated
       N       E                     dE             d eps       ncg     rms          ort
 gam= 0.000 g(H,U,f)=  0.200E-02 0.173E-04 0.277E-22 ort(H,U,f) = 0.000E+00 0.000E+00 0.000E+00
SDA:   1    -0.148445103090E+03    0.83898E-03    0.00000E+00  1152   0.201E-02 0.000E+00
 gam= 0.000 trial= 0.658  step= 0.686 mean= 0.658
 gam= 0.247 g(H,U,f)=  0.489E-03 0.784E-05 0.200E-22 ort(H,U,f) = 0.141E-04-0.895E-05-0.239E-22
CGA:   2    -0.148445793843E+03   -0.69075E-03   -0.69068E-03  1152   0.497E-03 0.512E-05
 gam= 0.247 trial= 0.659  step= 0.515 mean= 0.659
 gam= 0.176 g(H,U,f)=  0.854E-04 0.202E-05 0.210E-22 ort(H,U,f) =-0.235E-05 0.174E-05 0.150E-22
CGA:   3    -0.148445922162E+03   -0.12832E-03   -0.12828E-03  1152   0.874E-04-0.608E-06
 gam= 0.176 trial= 0.652  step= 0.490 mean= 0.652
 gam= 0.178 g(H,U,f)=  0.147E-04 0.810E-06 0.351E-23 ort(H,U,f) =-0.170E-05 0.124E-05 0.956E-23
CGA:   4    -0.148445943575E+03   -0.21413E-04   -0.21376E-04  1152   0.155E-04-0.461E-06
 gam= 0.178 trial= 0.644  step= 0.581 mean= 0.644
 gam= 0.201 g(H,U,f)=  0.276E-05 0.359E-06 0.175E-23 ort(H,U,f) =-0.824E-06 0.661E-06 0.368E-23
CGA:   5    -0.148445948073E+03   -0.44985E-05   -0.44934E-05  1152   0.312E-05-0.163E-06
 gam= 0.201 trial= 0.641  step= 0.650 mean= 0.641
 gam= 0.266 g(H,U,f)=  0.711E-06 0.119E-06 0.152E-23 ort(H,U,f) =-0.275E-06 0.280E-06 0.233E-23
CGA:   6    -0.148445949075E+03   -0.10019E-05   -0.10019E-05  1152   0.830E-06 0.522E-08
 gam= 0.266 trial= 0.641  step= 0.745 mean= 0.641
 gam= 0.310 g(H,U,f)=  0.231E-06 0.260E-07 0.423E-24 ort(H,U,f) =-0.985E-07 0.860E-07 0.113E-23
CGA:   7    -0.148445949384E+03   -0.30887E-06   -0.30957E-06  1152   0.257E-06-0.124E-07
 gam= 0.310 trial= 0.646  step= 0.839 mean= 0.646
 gam= 0.292 g(H,U,f)=  0.727E-07 0.233E-08 0.568E-25 ort(H,U,f) =-0.425E-07 0.140E-07 0.283E-24
CGA:   8    -0.148445949488E+03   -0.10344E-06   -0.10638E-06  1152   0.751E-07-0.285E-07
 gam= 0.292 trial= 0.656  step= 0.699 mean= 0.656
 final diagonalization
 241 F= -.14844595E+03 E0= -.14844595E+03  d E =-.245556E-04
 curvature:  -5.33 expect dE=-0.358E-03 dE for cont linesearch -0.683E-09
 trial: gam= 0.62158 g(F)=  0.571E-04 g(S)=  0.100E-04 ort = 0.620E-06 (trialstep = 0.234E+00)
 search vector abs. value=  0.123E-02
 bond charge predicted
 wavefunctions rotated
       N       E                     dE             d eps       ncg     rms          ort
 gam= 0.000 g(H,U,f)=  0.967E-03 0.788E-05 0.108E-22 ort(H,U,f) = 0.000E+00 0.000E+00 0.000E+00
SDA:   1    -0.148445549038E+03    0.40035E-03    0.00000E+00  1152   0.975E-03 0.000E+00
 gam= 0.000 trial= 0.658  step= 0.692 mean= 0.658
 gam= 0.250 g(H,U,f)=  0.240E-03 0.417E-05 0.422E-23 ort(H,U,f) = 0.519E-05-0.463E-05-0.682E-23
CGA:   2    -0.148445886359E+03   -0.33732E-03   -0.33731E-03  1152   0.244E-03 0.560E-06
 gam= 0.250 trial= 0.660  step= 0.512 mean= 0.660
 gam= 0.174 g(H,U,f)=  0.414E-04 0.108E-05 0.400E-23 ort(H,U,f) =-0.989E-06 0.871E-06 0.248E-23
CGA:   3    -0.148445948845E+03   -0.62486E-04   -0.62478E-04  1152   0.425E-04-0.118E-06
 gam= 0.174 trial= 0.652  step= 0.490 mean= 0.652
 gam= 0.179 g(H,U,f)=  0.720E-05 0.383E-06 0.614E-24 ort(H,U,f) =-0.739E-06 0.631E-06 0.173E-23
CGA:   4    -0.148445959271E+03   -0.10426E-04   -0.10417E-04  1152   0.759E-05-0.108E-06
 gam= 0.179 trial= 0.644  step= 0.586 mean= 0.644
 gam= 0.210 g(H,U,f)=  0.141E-05 0.182E-06 0.314E-24 ort(H,U,f) =-0.443E-06 0.334E-06 0.659E-24
CGA:   5    -0.148445961492E+03   -0.22213E-05   -0.22180E-05  1152   0.159E-05-0.110E-06
 gam= 0.210 trial= 0.641  step= 0.670 mean= 0.641
 gam= 0.281 g(H,U,f)=  0.388E-06 0.588E-07 0.263E-24 ort(H,U,f) =-0.172E-06 0.141E-06 0.414E-24
CGA:   6    -0.148445962017E+03   -0.52428E-06   -0.52494E-06  1152   0.447E-06-0.319E-07
 gam= 0.281 trial= 0.643  step= 0.737 mean= 0.643
 gam= 0.301 g(H,U,f)=  0.123E-06 0.111E-07 0.617E-25 ort(H,U,f) =-0.404E-07 0.403E-07 0.183E-24
CGA:   7    -0.148445962178E+03   -0.16135E-06   -0.16140E-06  1152   0.134E-06-0.991E-10
 gam= 0.301 trial= 0.647  step= 0.790 mean= 0.647
 gam= 0.265 g(H,U,f)=  0.342E-07 0.142E-08 0.117E-25 ort(H,U,f) =-0.137E-07 0.758E-08 0.508E-25
CGA:   8    -0.148445962231E+03   -0.52645E-07   -0.53068E-07  1152   0.356E-07-0.613E-08
 gam= 0.265 trial= 0.655  step= 0.718 mean= 0.655
 final diagonalization
 242 F= -.14844596E+03 E0= -.14844596E+03  d E =-.127429E-04
 trial-energy change:   -0.000013  1 .order   -0.000012   -0.000016   -0.000008
 step:   0.5008(harm=  0.5008)  dis= 0.00123  next Energy=  -148.445966 (dE=-0.169E-04)
 bond charge predicted
 wavefunctions rotated
       N       E                     dE             d eps       ncg     rms          ort
 gam= 0.000 g(H,U,f)=  0.126E-02 0.102E-04 0.148E-22 ort(H,U,f) = 0.000E+00 0.000E+00 0.000E+00
SDA:   1    -0.148445430764E+03    0.53141E-03    0.00000E+00  1152   0.127E-02 0.000E+00
 gam= 0.000 trial= 0.658  step= 0.692 mean= 0.658
 gam= 0.250 g(H,U,f)=  0.311E-03 0.543E-05 0.581E-23 ort(H,U,f) = 0.667E-05-0.602E-05-0.938E-23
CGA:   2    -0.148445869045E+03   -0.43828E-03   -0.43827E-03  1152   0.317E-03 0.648E-06
 gam= 0.250 trial= 0.659  step= 0.512 mean= 0.659
 gam= 0.175 g(H,U,f)=  0.539E-04 0.141E-05 0.557E-23 ort(H,U,f) =-0.127E-05 0.113E-05 0.344E-23
CGA:   3    -0.148445950252E+03   -0.81207E-04   -0.81196E-04  1152   0.553E-04-0.137E-06
 gam= 0.175 trial= 0.652  step= 0.490 mean= 0.652
 gam= 0.179 g(H,U,f)=  0.938E-05 0.498E-06 0.857E-24 ort(H,U,f) =-0.944E-06 0.820E-06 0.241E-23
CGA:   4    -0.148445963811E+03   -0.13560E-04   -0.13550E-04  1152   0.988E-05-0.123E-06
 gam= 0.179 trial= 0.644  step= 0.585 mean= 0.644
 gam= 0.208 g(H,U,f)=  0.182E-05 0.237E-06 0.440E-24 ort(H,U,f) =-0.560E-06 0.434E-06 0.921E-24
CGA:   5    -0.148445966701E+03   -0.28894E-05   -0.28858E-05  1152   0.206E-05-0.126E-06
 gam= 0.208 trial= 0.641  step= 0.670 mean= 0.641
 gam= 0.281 g(H,U,f)=  0.502E-06 0.768E-07 0.369E-24 ort(H,U,f) =-0.220E-06 0.183E-06 0.579E-24
CGA:   6    -0.148445967381E+03   -0.68045E-06   -0.68109E-06  1152   0.578E-06-0.368E-07
 gam= 0.281 trial= 0.643  step= 0.738 mean= 0.643
 gam= 0.301 g(H,U,f)=  0.160E-06 0.145E-07 0.863E-25 ort(H,U,f) =-0.525E-07 0.525E-07 0.256E-24
CGA:   7    -0.148445967591E+03   -0.20970E-06   -0.20969E-06  1152   0.174E-06 0.436E-10
 gam= 0.301 trial= 0.647  step= 0.782 mean= 0.647
 gam= 0.260 g(H,U,f)=  0.433E-07 0.190E-08 0.169E-25 ort(H,U,f) =-0.160E-07 0.101E-07 0.723E-25
CGA:   8    -0.148445967659E+03   -0.67852E-07   -0.68147E-07  1152   0.452E-07-0.594E-08
 gam= 0.260 trial= 0.654  step= 0.738 mean= 0.654
 final diagonalization
 243 F= -.14844597E+03 E0= -.14844597E+03  d E =-.181711E-04
 curvature:  -4.55 expect dE=-0.282E-03 dE for cont linesearch -0.246E-09
 trial: gam= 0.93318 g(F)=  0.557E-04 g(S)=  0.623E-05 ort =-0.258E-06 (trialstep = 0.287E+00)
 search vector abs. value=  0.113E-02
 bond charge predicted
 wavefunctions rotated
       N       E                     dE             d eps       ncg     rms          ort
 gam= 0.000 g(H,U,f)=  0.141E-02 0.933E-05 0.280E-23 ort(H,U,f) = 0.000E+00 0.000E+00 0.000E+00
SDA:   1    -0.148445367867E+03    0.59972E-03    0.00000E+00  1152   0.142E-02 0.000E+00
 gam= 0.000 trial= 0.658  step= 0.715 mean= 0.658
 gam= 0.250 g(H,U,f)=  0.351E-03 0.338E-05 0.104E-23 ort(H,U,f) = 0.487E-05-0.494E-05 0.168E-23
CGA:   2    -0.148445873901E+03   -0.50603E-03   -0.50604E-03  1152   0.354E-03-0.648E-07
 gam= 0.250 trial= 0.661  step= 0.502 mean= 0.661
 gam= 0.178 g(H,U,f)=  0.616E-04 0.132E-05 0.473E-24 ort(H,U,f) =-0.111E-05 0.101E-05-0.102E-23
CGA:   3    -0.148445962849E+03   -0.88948E-04   -0.88941E-04  1152   0.629E-04-0.102E-06
 gam= 0.178 trial= 0.653  step= 0.487 mean= 0.653
 gam= 0.168 g(H,U,f)=  0.101E-04 0.518E-06 0.296E-25 ort(H,U,f) =-0.677E-06 0.835E-06 0.730E-25
CGA:   4    -0.148445978154E+03   -0.15305E-04   -0.15318E-04  1152   0.106E-04 0.158E-06
 gam= 0.168 trial= 0.645  step= 0.582 mean= 0.645
 gam= 0.206 g(H,U,f)=  0.195E-05 0.228E-06 0.212E-27 ort(H,U,f) =-0.458E-06 0.429E-06-0.355E-26
CGA:   5    -0.148445981242E+03   -0.30875E-05   -0.30866E-05  1152   0.218E-05-0.283E-07
 gam= 0.206 trial= 0.642  step= 0.654 mean= 0.642
 gam= 0.274 g(H,U,f)=  0.520E-06 0.771E-07 0.242E-25 ort(H,U,f) =-0.202E-06 0.182E-06 0.558E-26
CGA:   6    -0.148445981951E+03   -0.70929E-06   -0.70943E-06  1152   0.597E-06-0.199E-07
 gam= 0.274 trial= 0.642  step= 0.711 mean= 0.642
 gam= 0.282 g(H,U,f)=  0.149E-06 0.190E-07 0.984E-26 ort(H,U,f) =-0.364E-07 0.620E-07 0.164E-25
CGA:   7    -0.148445982162E+03   -0.21111E-06   -0.21009E-06  1152   0.168E-06 0.256E-07
 gam= 0.282 trial= 0.646  step= 0.740 mean= 0.646
 gam= 0.250 g(H,U,f)=  0.391E-07 0.296E-08 0.336E-26 ort(H,U,f) =-0.300E-08 0.140E-07 0.847E-26
CGA:   8    -0.148445982227E+03   -0.65548E-07   -0.64908E-07  1152   0.421E-07 0.110E-07
 gam= 0.250 trial= 0.650  step= 0.807 mean= 0.650
 final diagonalization
 244 F= -.14844598E+03 E0= -.14844598E+03  d E =-.145688E-04
 trial-energy change:   -0.000015  1 .order   -0.000014   -0.000018   -0.000011
 step:   0.7242(harm=  0.7242)  dis= 0.00170  next Energy=  -148.445990 (dE=-0.223E-04)
 reached required accuracy - stopping structural energy minimisation
Note: The following floating-point exceptions are signalling: IEEE_INVALID_FLAG
Note: The following floating-point exceptions are signalling: IEEE_INVALID_FLAG
Note: The following floating-point exceptions are signalling: IEEE_INVALID_FLAG
Note: The following floating-point exceptions are signalling: IEEE_INVALID_FLAG
Note: The following floating-point exceptions are signalling: IEEE_INVALID_FLAG
Note: The following floating-point exceptions are signalling: IEEE_INVALID_FLAG
Note: The following floating-point exceptions are signalling: IEEE_INVALID_FLAG
Note: The following floating-point exceptions are signalling: IEEE_INVALID_FLAG
Note: The following floating-point exceptions are signalling: IEEE_INVALID_FLAG
Note: The following floating-point exceptions are signalling: IEEE_INVALID_FLAG
Note: The following floating-point exceptions are signalling: IEEE_INVALID_FLAG
Note: The following floating-point exceptions are signalling: IEEE_INVALID_FLAG
Note: The following floating-point exceptions are signalling: IEEE_INVALID_FLAG
Note: The following floating-point exceptions are signalling: IEEE_INVALID_FLAG
Note: The following floating-point exceptions are signalling: IEEE_INVALID_FLAG
Note: The following floating-point exceptions are signalling: IEEE_INVALID_FLAG
Note: The following floating-point exceptions are signalling: IEEE_INVALID_FLAG
Note: The following floating-point exceptions are signalling: IEEE_INVALID_FLAG
Note: The following floating-point exceptions are signalling: IEEE_INVALID_FLAG
Note: The following floating-point exceptions are signalling: IEEE_INVALID_FLAG
Note: The following floating-point exceptions are signalling: IEEE_INVALID_FLAG
Note: The following floating-point exceptions are signalling: IEEE_INVALID_FLAG
Note: The following floating-point exceptions are signalling: IEEE_INVALID_FLAG
Note: The following floating-point exceptions are signalling: IEEE_INVALID_FLAG
Note: The following floating-point exceptions are signalling: IEEE_INVALID_FLAG
Note: The following floating-point exceptions are signalling: IEEE_INVALID_FLAG
Note: The following floating-point exceptions are signalling: IEEE_INVALID_FLAG
Note: The following floating-point exceptions are signalling: IEEE_INVALID_FLAG
Note: The following floating-point exceptions are signalling: IEEE_INVALID_FLAG
Note: The following floating-point exceptions are signalling: IEEE_INVALID_FLAG
Note: The following floating-point exceptions are signalling: IEEE_INVALID_FLAG
Note: The following floating-point exceptions are signalling: IEEE_INVALID_FLAG
Note: The following floating-point exceptions are signalling: IEEE_INVALID_FLAG
Note: The following floating-point exceptions are signalling: IEEE_INVALID_FLAG
Note: The following floating-point exceptions are signalling: IEEE_INVALID_FLAG
Note: The following floating-point exceptions are signalling: IEEE_INVALID_FLAG
Note: The following floating-point exceptions are signalling: IEEE_INVALID_FLAG IEEE_DIVIDE_BY_ZERO
Note: The following floating-point exceptions are signalling: IEEE_INVALID_FLAG
Note: The following floating-point exceptions are signalling: IEEE_INVALID_FLAG
Note: The following floating-point exceptions are signalling: IEEE_INVALID_FLAG
Note: The following floating-point exceptions are signalling: IEEE_INVALID_FLAG
Note: The following floating-point exceptions are signalling: IEEE_INVALID_FLAG
Note: The following floating-point exceptions are signalling: IEEE_INVALID_FLAG
Note: The following floating-point exceptions are signalling: IEEE_INVALID_FLAG
Note: The following floating-point exceptions are signalling: IEEE_INVALID_FLAG
Note: The following floating-point exceptions are signalling: IEEE_INVALID_FLAG
Note: The following floating-point exceptions are signalling: IEEE_INVALID_FLAG
Note: The following floating-point exceptions are signalling: IEEE_INVALID_FLAG
Note: The following floating-point exceptions are signalling: IEEE_INVALID_FLAG
Note: The following floating-point exceptions are signalling: IEEE_INVALID_FLAG
Note: The following floating-point exceptions are signalling: IEEE_INVALID_FLAG
Note: The following floating-point exceptions are signalling: IEEE_INVALID_FLAG
Note: The following floating-point exceptions are signalling: IEEE_INVALID_FLAG
Note: The following floating-point exceptions are signalling: IEEE_INVALID_FLAG
Note: The following floating-point exceptions are signalling: IEEE_INVALID_FLAG
Note: The following floating-point exceptions are signalling: IEEE_INVALID_FLAG
Note: The following floating-point exceptions are signalling: IEEE_INVALID_FLAG IEEE_DIVIDE_BY_ZERO
Note: The following floating-point exceptions are signalling: IEEE_INVALID_FLAG
Note: The following floating-point exceptions are signalling: IEEE_INVALID_FLAG
Note: The following floating-point exceptions are signalling: IEEE_INVALID_FLAG
Note: The following floating-point exceptions are signalling: IEEE_INVALID_FLAG
Note: The following floating-point exceptions are signalling: IEEE_INVALID_FLAG
Note: The following floating-point exceptions are signalling: IEEE_INVALID_FLAG
Note: The following floating-point exceptions are signalling: IEEE_INVALID_FLAG
