<?xml version="1.0" encoding="ISO-8859-1"?>
<modeling>
 <generator>
  <i name="program" type="string">vasp </i>
  <i name="version" type="string">6.3.1  </i>
  <i name="subversion" type="string">04May22 (build May 25 2022 13:42:54) complex                          parallel </i>
  <i name="platform" type="string">HPECrayEX_GCC </i>
  <i name="date" type="string">2022 09 15 </i>
  <i name="time" type="string">10:29:53 </i>
 </generator>
 <incar>
  <i type="string" name="SYSTEM">cubic-FASnI3</i>
  <i type="int" name="ISTART">     0</i>
  <i type="string" name="PREC">Accurate</i>
  <i type="string" name="ALGO">ALL</i>
  <i type="int" name="ISPIN">     1</i>
  <i type="int" name="NELM">   200</i>
  <i type="int" name="NELMIN">     8</i>
  <i type="int" name="IBRION">     2</i>
  <i name="EDIFF">      0.00000500</i>
  <i name="EDIFFG">     -0.01000000</i>
  <i type="int" name="NSW">  1000</i>
  <i type="int" name="ISIF">     3</i>
  <i type="int" name="ISYM">     0</i>
  <i name="ENCUT">    700.00000000</i>
  <i type="logical" name="LREAL"> F  </i>
  <i type="int" name="ISMEAR">     0</i>
  <i name="SIGMA">      0.05000000</i>
  <i type="logical" name="LWAVE"> F  </i>
  <i type="logical" name="LCHARG"> F  </i>
  <i type="logical" name="LASPH"> T  </i>
  <i type="string" name="METAGGA">R2SCAN</i>
 </incar>
 <primitive_cell>
  <structure name="primitive_cell" >
   <crystal>
    <varray name="basis" >
     <v>       6.30740000       0.00000000       0.00000000 </v>
     <v>       0.00000000       6.30740000       0.00000000 </v>
     <v>       0.00000000       0.00000000       6.30740000 </v>
    </varray>
    <i name="volume">    250.92915337 </i>
    <varray name="rec_basis" >
     <v>       0.15854393       0.00000000       0.00000000 </v>
     <v>       0.00000000       0.15854393       0.00000000 </v>
     <v>       0.00000000       0.00000000       0.15854393 </v>
    </varray>
   </crystal>
   <varray name="positions" >
    <v>       0.94669275       0.05432168       0.99842978 </v>
    <v>       0.06899692       0.81080160       0.82473053 </v>
    <v>       0.18854240       0.93491789       0.17668345 </v>
    <v>       0.05352491       0.14954103       0.28319952 </v>
    <v>       0.85466838       0.94334886       0.71435899 </v>
    <v>       0.82452590       0.17605697       0.99682624 </v>
    <v>       0.00000000       0.50000000       0.50000000 </v>
    <v>       0.50000000       0.00000000       0.50000000 </v>
    <v>       0.50000000       0.50000000       0.00000000 </v>
    <v>       0.06873622       0.04122229       0.16503332 </v>
    <v>       0.96208809       0.93023118       0.83356153 </v>
    <v>       0.50000000       0.50000000       0.50000000 </v>
   </varray>
  </structure>
  <varray name="primitive_index" >
   <v type="int" >        1 </v>
   <v type="int" >        2 </v>
   <v type="int" >        3 </v>
   <v type="int" >        4 </v>
   <v type="int" >        5 </v>
   <v type="int" >        6 </v>
   <v type="int" >        7 </v>
   <v type="int" >        8 </v>
   <v type="int" >        9 </v>
   <v type="int" >       10 </v>
   <v type="int" >       11 </v>
   <v type="int" >       12 </v>
  </varray>
 </primitive_cell>
 <kpoints>
  <generation param="Gamma">
   <v type="int" name="divisions">       4        4        4 </v>
   <v name="usershift">      0.00000000       0.00000000       0.00000000 </v>
   <v name="genvec1">      0.25000000       0.00000000       0.00000000 </v>
   <v name="genvec2">      0.00000000       0.25000000       0.00000000 </v>
   <v name="genvec3">      0.00000000       0.00000000       0.25000000 </v>
   <v name="shift">      0.00000000       0.00000000       0.00000000 </v>
  </generation>
  <varray name="kpointlist" >
   <v>       0.00000000       0.00000000       0.00000000 </v>
   <v>       0.25000000       0.00000000       0.00000000 </v>
   <v>       0.00000000       0.25000000       0.00000000 </v>
   <v>       0.00000000       0.00000000       0.25000000 </v>
   <v>       0.50000000       0.00000000       0.00000000 </v>
   <v>       0.00000000       0.50000000       0.00000000 </v>
   <v>       0.00000000       0.00000000       0.50000000 </v>
   <v>       0.25000000       0.25000000       0.00000000 </v>
   <v>       0.00000000       0.25000000       0.25000000 </v>
   <v>       0.25000000       0.00000000       0.25000000 </v>
   <v>      -0.25000000       0.25000000       0.00000000 </v>
   <v>      -0.25000000       0.00000000       0.25000000 </v>
   <v>       0.00000000      -0.25000000       0.25000000 </v>
   <v>       0.50000000       0.25000000       0.00000000 </v>
   <v>       0.00000000       0.50000000       0.25000000 </v>
   <v>       0.25000000       0.00000000       0.50000000 </v>
   <v>      -0.25000000       0.50000000       0.00000000 </v>
   <v>       0.50000000       0.00000000       0.25000000 </v>
   <v>       0.00000000       0.25000000       0.50000000 </v>
   <v>       0.50000000       0.50000000       0.00000000 </v>
   <v>       0.00000000       0.50000000       0.50000000 </v>
   <v>       0.50000000       0.00000000       0.50000000 </v>
   <v>       0.25000000       0.25000000       0.25000000 </v>
   <v>      -0.25000000       0.25000000       0.25000000 </v>
   <v>      -0.25000000      -0.25000000       0.25000000 </v>
   <v>       0.25000000      -0.25000000       0.25000000 </v>
   <v>       0.50000000       0.25000000       0.25000000 </v>
   <v>       0.25000000       0.50000000       0.25000000 </v>
   <v>       0.25000000       0.25000000       0.50000000 </v>
   <v>      -0.25000000       0.50000000       0.25000000 </v>
   <v>      -0.25000000       0.25000000       0.50000000 </v>
   <v>       0.50000000      -0.25000000       0.25000000 </v>
   <v>       0.50000000       0.50000000       0.25000000 </v>
   <v>       0.25000000       0.50000000       0.50000000 </v>
   <v>       0.50000000       0.25000000       0.50000000 </v>
   <v>       0.50000000       0.50000000       0.50000000 </v>
  </varray>
  <varray name="weights" >
   <v>       0.01562500 </v>
   <v>       0.03125000 </v>
   <v>       0.03125000 </v>
   <v>       0.03125000 </v>
   <v>       0.01562500 </v>
   <v>       0.01562500 </v>
   <v>       0.01562500 </v>
   <v>       0.03125000 </v>
   <v>       0.03125000 </v>
   <v>       0.03125000 </v>
   <v>       0.03125000 </v>
   <v>       0.03125000 </v>
   <v>       0.03125000 </v>
   <v>       0.03125000 </v>
   <v>       0.03125000 </v>
   <v>       0.03125000 </v>
   <v>       0.03125000 </v>
   <v>       0.03125000 </v>
   <v>       0.03125000 </v>
   <v>       0.01562500 </v>
   <v>       0.01562500 </v>
   <v>       0.01562500 </v>
   <v>       0.03125000 </v>
   <v>       0.03125000 </v>
   <v>       0.03125000 </v>
   <v>       0.03125000 </v>
   <v>       0.03125000 </v>
   <v>       0.03125000 </v>
   <v>       0.03125000 </v>
   <v>       0.03125000 </v>
   <v>       0.03125000 </v>
   <v>       0.03125000 </v>
   <v>       0.03125000 </v>
   <v>       0.03125000 </v>
   <v>       0.03125000 </v>
   <v>       0.01562500 </v>
  </varray>
 </kpoints>
 <parameters>
  <separator name="general" >
   <i type="string" name="SYSTEM">cubic-FASnI3</i>
   <i type="logical" name="LCOMPAT"> F  </i>
  </separator>
  <separator name="electronic" >
   <i type="string" name="PREC">accura</i>
   <i name="ENMAX">    700.00000000</i>
   <i name="ENAUG">    644.87300000</i>
   <i name="EDIFF">      0.00000500</i>
   <i type="int" name="IALGO">    58</i>
   <i type="int" name="IWAVPR">    11</i>
   <i type="int" name="NBANDS">    32</i>
   <i type="int" name="NBANDSLOW">    -1</i>
   <i type="int" name="NBANDSHIGH">    -1</i>
   <i name="NELECT">     44.00000000</i>
   <i type="int" name="TURBO">     0</i>
   <i type="int" name="IRESTART">     0</i>
   <i type="int" name="NREBOOT">     0</i>
   <i type="int" name="NMIN">     0</i>
   <i name="EREF">      0.00000000</i>
   <separator name="electronic smearing" >
    <i type="int" name="ISMEAR">     0</i>
    <i name="SIGMA">      0.05000000</i>
    <i name="KSPACING">      0.50000000</i>
    <i type="logical" name="KGAMMA"> T  </i>
    <i type="logical" name="KBLOWUP"> T  </i>
   </separator>
   <separator name="electronic projectors" >
    <i type="logical" name="LREAL"> F  </i>
    <v name="ROPT">      0.00000000      0.00000000      0.00000000      0.00000000      0.00000000</v>
    <i type="int" name="LMAXPAW">  -100</i>
    <i type="int" name="LMAXMIX">     2</i>
    <i type="logical" name="NLSPLINE"> F  </i>
   </separator>
   <separator name="electronic startup" >
    <i type="int" name="ISTART">     0</i>
    <i type="int" name="ICHARG">     2</i>
    <i type="int" name="INIWAV">     1</i>
   </separator>
   <separator name="electronic spin" >
    <i type="int" name="ISPIN">     1</i>
    <i type="logical" name="LNONCOLLINEAR"> F  </i>
    <v name="MAGMOM">      1.00000000      1.00000000      1.00000000      1.00000000      1.00000000      1.00000000      1.00000000      1.00000000      1.00000000      1.00000000      1.00000000      1.00000000</v>
    <i name="NUPDOWN">     -1.00000000</i>
    <i type="logical" name="LSORBIT"> F  </i>
    <v name="SAXIS">      0.00000000      0.00000000      1.00000000</v>
    <i type="logical" name="LSPIRAL"> F  </i>
    <v name="QSPIRAL">      0.00000000      0.00000000      0.00000000</v>
    <i type="logical" name="LZEROZ"> F  </i>
   </separator>
   <separator name="electronic exchange-correlation" >
    <i type="logical" name="LASPH"> T  </i>
    <i type="logical" name="LMETAGGA"> F  </i>
   </separator>
   <separator name="electronic convergence" >
    <i type="int" name="NELM">   200</i>
    <i type="int" name="NELMDL">    -5</i>
    <i type="int" name="NELMIN">     8</i>
    <i name="ENINI">    700.00000000</i>
    <separator name="electronic convergence detail" >
     <i type="logical" name="LDIAG"> T  </i>
     <i type="logical" name="LSUBROT"> F  </i>
     <i name="WEIMIN">      0.00100000</i>
     <i name="EBREAK">      0.00000004</i>
     <i name="DEPER">      0.30000000</i>
     <i type="int" name="NRMM">     4</i>
     <i name="TIME">      0.40000000</i>
    </separator>
   </separator>
   <separator name="electronic mixer" >
    <i name="AMIX">      0.40000000</i>
    <i name="BMIX">      1.00000000</i>
    <i name="AMIN">      0.10000000</i>
    <i name="AMIX_MAG">      1.60000000</i>
    <i name="BMIX_MAG">      1.00000000</i>
    <separator name="electronic mixer details" >
     <i type="int" name="IMIX">     4</i>
     <i type="logical" name="MIXFIRST"> F  </i>
     <i type="int" name="MAXMIX">   -45</i>
     <i name="WC">    100.00000000</i>
     <i type="int" name="INIMIX">     1</i>
     <i type="int" name="MIXPRE">     1</i>
     <i type="int" name="MREMOVE">     5</i>
    </separator>
   </separator>
   <separator name="electronic dipolcorrection" >
    <i type="logical" name="LDIPOL"> F  </i>
    <i type="logical" name="LMONO"> F  </i>
    <i type="int" name="IDIPOL">     0</i>
    <i name="EPSILON">      1.00000000</i>
    <v name="DIPOL">   -100.00000000   -100.00000000   -100.00000000</v>
    <i name="EFIELD">      0.00000000</i>
   </separator>
  </separator>
  <separator name="grids" >
   <i type="int" name="NGX">    54</i>
   <i type="int" name="NGY">    54</i>
   <i type="int" name="NGZ">    54</i>
   <i type="int" name="NGXF">   108</i>
   <i type="int" name="NGYF">   108</i>
   <i type="int" name="NGZF">   108</i>
   <i type="logical" name="ADDGRID"> F  </i>
  </separator>
  <separator name="ionic" >
   <i type="int" name="NSW">  1000</i>
   <i type="int" name="IBRION">     2</i>
   <i type="int" name="MDALGO">     0</i>
   <i type="int" name="ISIF">     3</i>
   <i name="PSTRESS">      0.00000000</i>
   <i name="EDIFFG">     -0.01000000</i>
   <i type="int" name="NFREE">     1</i>
   <i name="POTIM">      0.50000000</i>
   <i name="SMASS">     -3.00000000</i>
   <i name="SCALEE">      1.00000000</i>
  </separator>
  <separator name="ionic md" >
   <i name="TEBEG">      0.00010000</i>
   <i name="TEEND">      0.00010000</i>
   <i type="int" name="NBLOCK">     1</i>
   <i type="int" name="KBLOCK">  1000</i>
   <i type="int" name="NPACO">   256</i>
   <i name="APACO">     10.00000000</i>
  </separator>
  <separator name="symmetry" >
   <i type="int" name="ISYM">     0</i>
   <i name="SYMPREC">      0.00001000</i>
  </separator>
  <separator name="dos" >
   <i type="int" name="LORBIT">     0</i>
   <v name="RWIGS">     -1.00000000     -1.00000000     -1.00000000     -1.00000000     -1.00000000</v>
   <i type="int" name="NEDOS">   301</i>
   <i name="EMIN">     10.00000000</i>
   <i name="EMAX">    -10.00000000</i>
   <i name="EFERMI">      0.00000000</i>
  </separator>
  <separator name="writing" >
   <i type="int" name="NWRITE">     2</i>
   <i type="logical" name="LWAVE"> F  </i>
   <i type="logical" name="LDOWNSAMPLE"> F  </i>
   <i type="logical" name="LCHARG"> F  </i>
   <i type="logical" name="LPARD"> F  </i>
   <i type="logical" name="LVTOT"> F  </i>
   <i type="logical" name="LVHAR"> F  </i>
   <i type="logical" name="LELF"> F  </i>
   <i type="logical" name="LOPTICS"> F  </i>
   <v name="STM">      0.00000000      0.00000000      0.00000000      0.00000000      0.00000000      0.00000000      0.00000000</v>
  </separator>
  <separator name="performance" >
   <i type="int" name="NPAR">     8</i>
   <i type="int" name="NSIM">     4</i>
   <i type="int" name="NBLK">    -1</i>
   <i type="logical" name="LPLANE"> T  </i>
   <i type="logical" name="LSCALAPACK"> T  </i>
   <i type="logical" name="LSCAAWARE"> F  </i>
   <i type="logical" name="LSCALU"> F  </i>
   <i type="logical" name="LASYNC"> F  </i>
   <i type="logical" name="LORBITALREAL"> F  </i>
  </separator>
  <separator name="miscellaneous" >
   <i type="int" name="IDIOT">     3</i>
   <i type="int" name="PHON_NSTRUCT">    -1</i>
   <i type="logical" name="LMUSIC"> F  </i>
   <v name="POMASS">     12.01100000      1.00000000    126.90400000     14.00100000    118.71000000</v>
   <v name="DARWINR">      0.00000000      0.00000000      0.00000000      0.00000000      0.00000000</v>
   <v name="DARWINV">      1.00000000      1.00000000      1.00000000      1.00000000      1.00000000</v>
   <i type="logical" name="LCORR"> T  </i>
  </separator>
  <i type="logical" name="GGA_COMPAT"> T  </i>
  <i type="logical" name="LBERRY"> F  </i>
  <i type="int" name="ICORELEVEL">     0</i>
  <i type="logical" name="LDAU"> F  </i>
  <i type="int" name="I_CONSTRAINED_M">     0</i>
  <separator name="electronic exchange-correlation" >
   <i type="string" name="GGA">--</i>
   <i type="int" name="VOSKOWN">     0</i>
   <i type="logical" name="LHFCALC"> F  </i>
   <i type="string" name="PRECFOCK"></i>
   <i type="logical" name="LSYMGRAD"> F  </i>
   <i type="logical" name="LHFONE"> F  </i>
   <i type="logical" name="LRHFCALC"> F  </i>
   <i type="logical" name="LTHOMAS"> F  </i>
   <i type="logical" name="LMODELHF"> F  </i>
   <i type="logical" name="LFOCKACE"> F  </i>
   <i name="ENCUT4O">     -1.00000000</i>
   <i type="int" name="EXXOEP">     0</i>
   <i type="int" name="FOURORBIT">     0</i>
   <i name="AEXX">      0.00000000</i>
   <i name="HFALPHA">      0.00000000</i>
   <i name="MCALPHA">      0.00000000</i>
   <i name="ALDAX">      1.00000000</i>
   <i name="AGGAX">      1.00000000</i>
   <i name="ALDAC">      1.00000000</i>
   <i name="AGGAC">      1.00000000</i>
   <i type="int" name="NKREDX">     1</i>
   <i type="int" name="NKREDY">     1</i>
   <i type="int" name="NKREDZ">     1</i>
   <i type="logical" name="SHIFTRED"> F  </i>
   <i type="logical" name="ODDONLY"> F  </i>
   <i type="logical" name="EVENONLY"> F  </i>
   <i type="int" name="LMAXFOCK">     0</i>
   <i type="int" name="NMAXFOCKAE">     0</i>
   <i type="logical" name="LFOCKAEDFT"> F  </i>
   <i name="HFSCREEN">      0.00000000</i>
   <i name="HFSCREENC">      0.00000000</i>
   <i type="int" name="NBANDSGWLOW">     0</i>
  </separator>
  <separator name="vdW DFT" >
   <i type="logical" name="LUSE_VDW"> F  </i>
   <i name="Zab_VDW">     -0.84910000</i>
   <i name="PARAM1">      0.12340000</i>
   <i name="PARAM2">      1.00000000</i>
   <i name="PARAM3">      0.00000000</i>
  </separator>
  <separator name="model GW" >
   <i type="int" name="MODEL_GW">     0</i>
   <i name="MODEL_EPS0">     12.54645767</i>
   <i name="MODEL_ALPHA">      1.00000000</i>
  </separator>
  <separator name="linear response parameters" >
   <i type="logical" name="LEPSILON"> F  </i>
   <i type="logical" name="LRPA"> F  </i>
   <i type="logical" name="LNABLA"> F  </i>
   <i type="logical" name="LVEL"> F  </i>
   <i name="CSHIFT">      0.10000000</i>
   <i name="OMEGAMAX">     -1.00000000</i>
   <i name="DEG_THRESHOLD">      0.00200000</i>
   <i name="RTIME">     -0.10000000</i>
   <i name="WPLASMAI">      0.00000000</i>
   <v name="DFIELD">      0.00000000      0.00000000      0.00000000</v>
   <v name="WPLASMA">      0.00000000      0.00000000      0.00000000      0.00000000      0.00000000      0.00000000      0.00000000      0.00000000      0.00000000</v>
  </separator>
  <separator name="orbital magnetization" >
   <i type="logical" name="NUCIND"> F  </i>
   <v name="MAGPOS">      0.00000000      0.00000000      0.00000000</v>
   <i type="logical" name="LNICSALL"> T  </i>
   <i type="logical" name="ORBITALMAG"> F  </i>
   <i type="logical" name="LMAGBLOCH"> F  </i>
   <i type="logical" name="LCHIMAG"> F  </i>
   <i type="logical" name="LGAUGE"> T  </i>
   <i type="int" name="MAGATOM">     0</i>
   <v name="MAGDIPOL">      0.00000000      0.00000000      0.00000000</v>
   <v name="AVECCONST">      0.00000000      0.00000000      0.00000000</v>
  </separator>
  <separator name="response functions" >
   <i type="logical" name="LFINITE_TEMPERATURE"> F  </i>
   <i type="logical" name="LADDER"> F  </i>
   <i type="logical" name="LRPAFORCE"> F  </i>
   <i type="logical" name="LFXC"> F  </i>
   <i type="logical" name="LHARTREE"> T  </i>
   <i type="int" name="IBSE">     0</i>
   <v type="int" name="KPOINT">    -1     0     0     0</v>
   <i type="logical" name="LTCTC"> F  </i>
   <i type="logical" name="LTCTE"> F  </i>
   <i type="logical" name="LTETE"> F  </i>
   <i type="logical" name="LTRIPLET"> F  </i>
   <i type="logical" name="LFXCEPS"> F  </i>
   <i type="logical" name="LFXHEG"> F  </i>
   <i type="int" name="NATURALO">     2</i>
   <i type="logical" name="LHOLEGF"> F  </i>
   <i type="logical" name="L2ORDER"> F  </i>
   <i type="logical" name="LDMP1"> F  </i>
   <i type="logical" name="LMP2LT"> F  </i>
   <i type="logical" name="LSMP2LT"> F  </i>
   <i type="logical" name="LGWLF"> F  </i>
   <i name="ENCUTGW">     -2.00000000</i>
   <i name="ENCUTGWSOFT">     -2.00000000</i>
   <i name="ENCUTLF">     -1.00000000</i>
   <i type="logical" name="LESF_SPLINES"> F  </i>
   <i type="int" name="LMAXMP2">    -1</i>
   <i name="SCISSOR">      0.00000000</i>
   <i type="int" name="NOMEGA">     0</i>
   <i type="int" name="NOMEGAR">     0</i>
   <i type="int" name="NBANDSGW">    -1</i>
   <i type="int" name="NBANDSO">    -1</i>
   <i type="int" name="NBANDSV">    -1</i>
   <i type="int" name="NELMGW">     1</i>
   <i type="int" name="NELMHF">     1</i>
   <i type="int" name="DIM">     3</i>
   <i type="int" name="IESPILON">     4</i>
   <i type="int" name="ANTIRES">     0</i>
   <i name="OMEGAMAX">    -30.00000000</i>
   <i name="OMEGAMIN">    -30.00000000</i>
   <i name="OMEGATL">   -200.00000000</i>
   <i type="int" name="OMEGAGRID">     0</i>
   <i name="CSHIFT">     -0.10000000</i>
   <i type="logical" name="LSELFENERGY"> F  </i>
   <i type="logical" name="LSPECTRAL"> F  </i>
   <i type="logical" name="LSPECTRALGW"> F  </i>
   <i type="logical" name="LSINGLES"> F  </i>
   <i type="logical" name="LFERMIGW"> F  </i>
   <i type="logical" name="ODDONLYGW"> F  </i>
   <i type="logical" name="EVENONLYGW"> F  </i>
   <i type="int" name="NKREDLFX">     1</i>
   <i type="int" name="NKREDLFY">     1</i>
   <i type="int" name="NKREDLFZ">     1</i>
   <i type="int" name="MAXMEM">  2800</i>
   <i type="int" name="TELESCOPE">     0</i>
   <i type="int" name="NTAUPAR">    -1</i>
   <i type="int" name="NOMEGAPAR">    -1</i>
   <i name="DAMP_NEWTON">      0.80000001</i>
   <i name="LAMBDA">      1.00000000</i>
  </separator>
  <separator name="External order field" >
   <i name="OFIELD_KAPPA">      0.00000000</i>
   <v name="OFIELD_K">      0.00000000      0.00000000      0.00000000</v>
   <i name="OFIELD_Q6_NEAR">      0.00000000</i>
   <i name="OFIELD_Q6_FAR">      0.00000000</i>
   <i name="OFIELD_A">      0.00000000</i>
  </separator>
  <separator name="optional k-points parameters" >
   <i type="int" name="KPOINTS_OPT_MODE">     1</i>
   <i type="logical" name="LKPOINTS_OPT"> F  </i>
  </separator>
 </parameters>
 <atominfo>
  <atoms>      12 </atoms>
  <types>       5 </types>
  <array name="atoms" >
   <dimension dim="1">ion</dimension>
   <field type="string">element</field>
   <field type="int">atomtype</field>
   <set>
    <rc><c>C </c><c>   1</c></rc>
    <rc><c>H </c><c>   2</c></rc>
    <rc><c>H </c><c>   2</c></rc>
    <rc><c>H </c><c>   2</c></rc>
    <rc><c>H </c><c>   2</c></rc>
    <rc><c>H </c><c>   2</c></rc>
    <rc><c>I </c><c>   3</c></rc>
    <rc><c>I </c><c>   3</c></rc>
    <rc><c>I </c><c>   3</c></rc>
    <rc><c>N </c><c>   4</c></rc>
    <rc><c>N </c><c>   4</c></rc>
    <rc><c>Sn</c><c>   5</c></rc>
   </set>
  </array>
  <array name="atomtypes" >
   <dimension dim="1">type</dimension>
   <field type="int">atomspertype</field>
   <field type="string">element</field>
   <field>mass</field>
   <field>valence</field>
   <field type="string">pseudopotential</field>
   <set>
    <rc><c>   1</c><c>C </c><c>     12.01100000</c><c>      4.00000000</c><c>  PAW_PBE C 08Apr2002                   </c></rc>
    <rc><c>   5</c><c>H </c><c>      1.00000000</c><c>      1.00000000</c><c>  PAW_PBE H 15Jun2001                   </c></rc>
    <rc><c>   3</c><c>I </c><c>    126.90400000</c><c>      7.00000000</c><c>  PAW_PBE I 08Apr2002                   </c></rc>
    <rc><c>   2</c><c>N </c><c>     14.00100000</c><c>      5.00000000</c><c>  PAW_PBE N 08Apr2002                   </c></rc>
    <rc><c>   1</c><c>Sn</c><c>    118.71000000</c><c>      4.00000000</c><c>  PAW_PBE Sn 08Apr2002                  </c></rc>
   </set>
  </array>
 </atominfo>
 <structure name="initialpos" >
  <crystal>
   <varray name="basis" >
    <v>       6.30740000       0.00000000       0.00000000 </v>
    <v>       0.00000000       6.30740000       0.00000000 </v>
    <v>       0.00000000       0.00000000       6.30740000 </v>
   </varray>
   <i name="volume">    250.92915337 </i>
   <varray name="rec_basis" >
    <v>       0.15854393       0.00000000       0.00000000 </v>
    <v>       0.00000000       0.15854393       0.00000000 </v>
    <v>       0.00000000       0.00000000       0.15854393 </v>
   </varray>
  </crystal>
  <varray name="positions" >
   <v>       0.94669275       0.05432168       0.99842978 </v>
   <v>       0.06899692       0.81080160       0.82473053 </v>
   <v>       0.18854240       0.93491789       0.17668345 </v>
   <v>       0.05352491       0.14954103       0.28319952 </v>
   <v>       0.85466838       0.94334886       0.71435899 </v>
   <v>       0.82452590       0.17605697       0.99682624 </v>
   <v>       0.00000000       0.50000000       0.50000000 </v>
   <v>       0.50000000       0.00000000       0.50000000 </v>
   <v>       0.50000000       0.50000000       0.00000000 </v>
   <v>       0.06873622       0.04122229       0.16503332 </v>
   <v>       0.96208809       0.93023118       0.83356153 </v>
   <v>       0.50000000       0.50000000       0.50000000 </v>
  </varray>
 </structure>
 <calculation>
  <scstep>
   <time name="total">    2.34    2.54</time>
   <energy>
    <i name="alphaZ">     28.77967674 </i>
    <i name="ewald">  -1142.05110727 </i>
    <i name="hartreedc">   -536.12259072 </i>
    <i name="XCdc">    -43.21608182 </i>
    <i name="pawpsdc">   1483.98927343 </i>
    <i name="pawaedc">  -1407.62454885 </i>
    <i name="eentropy">     -0.00057133 </i>
    <i name="bandstr">      8.21612190 </i>
    <i name="atom">   1780.36699914 </i>
    <i name="e_fr_energy">    172.33717122 </i>
    <i name="e_wo_entrp">    172.33774255 </i>
    <i name="e_0_energy">    172.33745689 </i>
   </energy>
  </scstep>
  <scstep>
   <time name="total">    1.98    2.01</time>
   <energy>
    <i name="e_fr_energy">   -128.45704284 </i>
    <i name="e_wo_entrp">   -128.45664697 </i>
    <i name="e_0_energy">   -128.45684491 </i>
   </energy>
  </scstep>
  <scstep>
   <time name="total">    2.04    2.05</time>
   <energy>
    <i name="e_fr_energy">   -160.49608913 </i>
    <i name="e_wo_entrp">   -160.49575262 </i>
    <i name="e_0_energy">   -160.49592087 </i>
   </energy>
  </scstep>
  <scstep>
   <time name="total">    1.99    1.99</time>
   <energy>
    <i name="e_fr_energy">   -161.12198204 </i>
    <i name="e_wo_entrp">   -161.12195149 </i>
    <i name="e_0_energy">   -161.12196677 </i>
   </energy>
  </scstep>
  <scstep>
   <time name="total">    2.20    2.20</time>
   <energy>
    <i name="e_fr_energy">   -161.13679260 </i>
    <i name="e_wo_entrp">   -161.13676002 </i>
    <i name="e_0_energy">   -161.13677631 </i>
   </energy>
  </scstep>
  <scstep>
   <time name="total">    2.80    2.81</time>
   <energy>
    <i name="e_fr_energy">   -144.96384532 </i>
    <i name="e_wo_entrp">   -144.96384532 </i>
    <i name="e_0_energy">   -144.96384532 </i>
   </energy>
  </scstep>
  <scstep>
   <time name="total">    2.81    2.81</time>
   <energy>
    <i name="e_fr_energy">   -147.74916065 </i>
    <i name="e_wo_entrp">   -147.74916065 </i>
    <i name="e_0_energy">   -147.74916065 </i>
   </energy>
  </scstep>
  <scstep>
   <time name="total">    2.80    2.81</time>
   <energy>
    <i name="e_fr_energy">   -148.12341721 </i>
    <i name="e_wo_entrp">   -148.12341721 </i>
    <i name="e_0_energy">   -148.12341721 </i>
   </energy>
  </scstep>
  <scstep>
   <time name="total">    2.79    2.80</time>
   <energy>
    <i name="e_fr_energy">   -148.24124296 </i>
    <i name="e_wo_entrp">   -148.24124296 </i>
    <i name="e_0_energy">   -148.24124296 </i>
   </energy>
  </scstep>
  <scstep>
   <time name="total">    2.80    2.80</time>
   <energy>
    <i name="e_fr_energy">   -148.27785103 </i>
    <i name="e_wo_entrp">   -148.27785103 </i>
    <i name="e_0_energy">   -148.27785103 </i>
   </energy>
  </scstep>
  <scstep>
   <time name="total">    2.80    2.81</time>
   <energy>
    <i name="e_fr_energy">   -148.28940115 </i>
    <i name="e_wo_entrp">   -148.28940115 </i>
    <i name="e_0_energy">   -148.28940115 </i>
   </energy>
  </scstep>
  <scstep>
   <time name="total">    2.80    2.81</time>
   <energy>
    <i name="e_fr_energy">   -148.29222015 </i>
    <i name="e_wo_entrp">   -148.29222015 </i>
    <i name="e_0_energy">   -148.29222015 </i>
   </energy>
  </scstep>
  <scstep>
   <time name="total">    2.80    2.80</time>
   <energy>
    <i name="e_fr_energy">   -148.29285164 </i>
    <i name="e_wo_entrp">   -148.29285164 </i>
    <i name="e_0_energy">   -148.29285164 </i>
   </energy>
  </scstep>
  <scstep>
   <time name="total">    2.80    2.81</time>
   <energy>
    <i name="e_fr_energy">   -148.29299942 </i>
    <i name="e_wo_entrp">   -148.29299942 </i>
    <i name="e_0_energy">   -148.29299942 </i>
   </energy>
  </scstep>
  <scstep>
   <time name="total">    2.79    2.80</time>
   <energy>
    <i name="e_fr_energy">   -148.29303286 </i>
    <i name="e_wo_entrp">   -148.29303286 </i>
    <i name="e_0_energy">   -148.29303286 </i>
   </energy>
  </scstep>
  <scstep>
   <time name="total">    2.79    2.80</time>
   <energy>
    <i name="e_fr_energy">   -148.29304151 </i>
    <i name="e_wo_entrp">   -148.29304151 </i>
    <i name="e_0_energy">   -148.29304151 </i>
   </energy>
  </scstep>
  <scstep>
   <time name="total">    3.12    3.13</time>
   <energy>
    <i name="alphaZ">     28.77967674 </i>
    <i name="ewald">  -1142.05110727 </i>
    <i name="hartreedc">   -593.50020929 </i>
    <i name="XCdc">    -35.59755690 </i>
    <i name="pawpsdc">   3265.08590553 </i>
    <i name="pawaedc">  -3190.07257336 </i>
    <i name="eentropy">     -0.00000000 </i>
    <i name="bandstr">   -261.30417822 </i>
    <i name="atom">   1780.36699914 </i>
    <i name="e_fr_energy">   -148.29304363 </i>
    <i name="e_wo_entrp">   -148.29304363 </i>
    <i name="e_0_energy">   -148.29304363 </i>
   </energy>
  </scstep>
  <structure>
   <crystal>
    <varray name="basis" >
     <v>       6.30740000       0.00000000       0.00000000 </v>
     <v>       0.00000000       6.30740000       0.00000000 </v>
     <v>       0.00000000       0.00000000       6.30740000 </v>
    </varray>
    <i name="volume">    250.92915337 </i>
    <varray name="rec_basis" >
     <v>       0.15854393       0.00000000       0.00000000 </v>
     <v>       0.00000000       0.15854393       0.00000000 </v>
     <v>       0.00000000       0.00000000       0.15854393 </v>
    </varray>
   </crystal>
   <varray name="positions" >
    <v>       0.94669275       0.05432168       0.99842978 </v>
    <v>       0.06899692       0.81080160       0.82473053 </v>
    <v>       0.18854240       0.93491789       0.17668345 </v>
    <v>       0.05352491       0.14954103       0.28319952 </v>
    <v>       0.85466838       0.94334886       0.71435899 </v>
    <v>       0.82452590       0.17605697       0.99682624 </v>
    <v>       0.00000000       0.50000000       0.50000000 </v>
    <v>       0.50000000       0.00000000       0.50000000 </v>
    <v>       0.50000000       0.50000000       0.00000000 </v>
    <v>       0.06873622       0.04122229       0.16503332 </v>
    <v>       0.96208809       0.93023118       0.83356153 </v>
    <v>       0.50000000       0.50000000       0.50000000 </v>
   </varray>
  </structure>
  <varray name="forces" >
   <v>      -0.00325823      -0.00114225       0.00851231 </v>
   <v>       0.00262422      -0.00688769      -0.00331651 </v>
   <v>      -0.00442859       0.00242458      -0.00216190 </v>
   <v>       0.00191308       0.00611813       0.00070232 </v>
   <v>       0.00550173      -0.00132054      -0.00288109 </v>
   <v>       0.00094863      -0.00060789       0.00691318 </v>
   <v>       0.00590985      -0.09716243      -0.07385526 </v>
   <v>       0.10082101      -0.00853919       0.07385740 </v>
   <v>      -0.11458027       0.11596343      -0.00120549 </v>
   <v>       0.00173079      -0.00596518      -0.00712115 </v>
   <v>      -0.00663092       0.00655932       0.00096800 </v>
   <v>       0.00944870      -0.00944030      -0.00041182 </v>
  </varray>
  <varray name="stress" >
   <v>       5.26463232      -0.71066622       4.19662789 </v>
   <v>      -0.71069300       5.65317766       4.76230093 </v>
   <v>       4.19673103       4.76239450       6.51664233 </v>
  </varray>
  <energy>
   <i name="e_fr_energy">   -148.29304363 </i>
   <i name="e_wo_entrp">   -148.29304363 </i>
   <i name="e_0_energy">   -148.29304363 </i>
  </energy>
  <time name="totalsc">   49.41   49.75</time>
 </calculation>
 <calculation>
  <scstep>
   <time name="total">    2.79    2.79</time>
   <energy>
    <i name="alphaZ">     28.46651098 </i>
    <i name="ewald">  -1140.48051448 </i>
    <i name="hartreedc">   -591.60893797 </i>
    <i name="XCdc">    -35.93620434 </i>
    <i name="pawpsdc">   3355.63596053 </i>
    <i name="pawaedc">  -3280.53839754 </i>
    <i name="eentropy">     -0.00000000 </i>
    <i name="bandstr">   -264.14966730 </i>
    <i name="atom">   1780.36699914 </i>
    <i name="e_fr_energy">   -148.24425097 </i>
    <i name="e_wo_entrp">   -148.24425097 </i>
    <i name="e_0_energy">   -148.24425097 </i>
   </energy>
  </scstep>
  <scstep>
   <time name="total">    2.78    2.79</time>
   <energy>
    <i name="e_fr_energy">   -148.29311719 </i>
    <i name="e_wo_entrp">   -148.29311719 </i>
    <i name="e_0_energy">   -148.29311719 </i>
   </energy>
  </scstep>
  <scstep>
   <time name="total">    2.78    2.79</time>
   <energy>
    <i name="e_fr_energy">   -148.30140040 </i>
    <i name="e_wo_entrp">   -148.30140040 </i>
    <i name="e_0_energy">   -148.30140040 </i>
   </energy>
  </scstep>
  <scstep>
   <time name="total">    2.79    2.79</time>
   <energy>
    <i name="e_fr_energy">   -148.30314273 </i>
    <i name="e_wo_entrp">   -148.30314273 </i>
    <i name="e_0_energy">   -148.30314273 </i>
   </energy>
  </scstep>
  <scstep>
   <time name="total">    2.79    2.80</time>
   <energy>
    <i name="e_fr_energy">   -148.30362143 </i>
    <i name="e_wo_entrp">   -148.30362143 </i>
    <i name="e_0_energy">   -148.30362143 </i>
   </energy>
  </scstep>
  <scstep>
   <time name="total">    2.81    2.82</time>
   <energy>
    <i name="e_fr_energy">   -148.30378576 </i>
    <i name="e_wo_entrp">   -148.30378576 </i>
    <i name="e_0_energy">   -148.30378576 </i>
   </energy>
  </scstep>
  <scstep>
   <time name="total">    2.79    2.79</time>
   <energy>
    <i name="e_fr_energy">   -148.30383077 </i>
    <i name="e_wo_entrp">   -148.30383077 </i>
    <i name="e_0_energy">   -148.30383077 </i>
   </energy>
  </scstep>
  <scstep>
   <time name="total">    2.77    2.78</time>
   <energy>
    <i name="e_fr_energy">   -148.30384191 </i>
    <i name="e_wo_entrp">   -148.30384191 </i>
    <i name="e_0_energy">   -148.30384191 </i>
   </energy>
  </scstep>
  <scstep>
   <time name="total">    3.09    3.10</time>
   <energy>
    <i name="alphaZ">     28.46651098 </i>
    <i name="ewald">  -1140.48051448 </i>
    <i name="hartreedc">   -592.72202815 </i>
    <i name="XCdc">    -35.87906002 </i>
    <i name="pawpsdc">   3223.53371259 </i>
    <i name="pawaedc">  -3148.48634569 </i>
    <i name="eentropy">     -0.00000000 </i>
    <i name="bandstr">   -263.10311885 </i>
    <i name="atom">   1780.36699914 </i>
    <i name="e_fr_energy">   -148.30384449 </i>
    <i name="e_wo_entrp">   -148.30384449 </i>
    <i name="e_0_energy">   -148.30384449 </i>
   </energy>
  </scstep>
  <structure>
   <crystal>
    <varray name="basis" >
     <v>       6.32830783      -0.00282232       0.01666638 </v>
     <v>      -0.00282243       6.32985089       0.01891288 </v>
     <v>       0.01666679       0.01891325       6.33328003 </v>
    </varray>
    <i name="volume">    253.68967501 </i>
    <varray name="rec_basis" >
     <v>       0.15802125       0.00007170      -0.00041607 </v>
     <v>       0.00007170       0.15798305      -0.00047198 </v>
     <v>      -0.00041606      -0.00047197       0.15789857 </v>
    </varray>
   </crystal>
   <varray name="positions" >
    <v>       0.94666783       0.05431294       0.99849489 </v>
    <v>       0.06901699       0.81074892       0.82470516 </v>
    <v>       0.18850852       0.93493643       0.17666691 </v>
    <v>       0.05353955       0.14958782       0.28320490 </v>
    <v>       0.85471046       0.94333876       0.71433696 </v>
    <v>       0.82453315       0.17605232       0.99687912 </v>
    <v>       0.00004520       0.49925685       0.49943511 </v>
    <v>       0.50077114      -0.00006531       0.50056490 </v>
    <v>       0.49912362       0.50088696      -0.00000922 </v>
    <v>       0.06874946       0.04117667       0.16497885 </v>
    <v>       0.96203737       0.93028135       0.83356893 </v>
    <v>       0.50007227       0.49992780       0.49999685 </v>
   </varray>
  </structure>
  <varray name="forces" >
   <v>       0.15795065      -0.18671162      -0.03554253 </v>
   <v>      -0.12891940       0.14872543       0.02209542 </v>
   <v>      -0.11576921       0.09749144      -0.02207766 </v>
   <v>       0.00903005      -0.17417948      -0.23320421 </v>
   <v>       0.14286482       0.00617003       0.19801119 </v>
   <v>       0.10029401      -0.10209248       0.00668048 </v>
   <v>       0.00713922      -0.08874773      -0.06453379 </v>
   <v>       0.09099040      -0.00932607       0.06329316 </v>
   <v>      -0.10536958       0.10648570      -0.00123765 </v>
   <v>      -0.14907305       0.07836329      -0.15593118 </v>
   <v>      -0.01830907       0.13285594       0.22271080 </v>
   <v>       0.00917117      -0.00903445      -0.00026402 </v>
  </varray>
  <varray name="stress" >
   <v>      -0.47867164       1.40337377       1.08639609 </v>
   <v>       1.40333623      -0.70804006       0.97587976 </v>
   <v>       1.08656028       0.97583593      -4.00908081 </v>
  </varray>
  <energy>
   <i name="e_fr_energy">   -148.30384449 </i>
   <i name="e_wo_entrp">   -148.30384449 </i>
   <i name="e_0_energy">   -148.30384449 </i>
  </energy>
  <time name="totalsc">   30.31   30.37</time>
 </calculation>
 <calculation>
  <scstep>
   <time name="total">    2.78    2.78</time>
   <energy>
    <i name="alphaZ">     28.45271577 </i>
    <i name="ewald">  -1140.41017400 </i>
    <i name="hartreedc">   -592.64462763 </i>
    <i name="XCdc">    -35.89351065 </i>
    <i name="pawpsdc">   3227.45140325 </i>
    <i name="pawaedc">  -3152.40042517 </i>
    <i name="eentropy">     -0.00000000 </i>
    <i name="bandstr">   -263.22612245 </i>
    <i name="atom">   1780.36699914 </i>
    <i name="e_fr_energy">   -148.30374175 </i>
    <i name="e_wo_entrp">   -148.30374175 </i>
    <i name="e_0_energy">   -148.30374175 </i>
   </energy>
  </scstep>
  <scstep>
   <time name="total">    2.79    2.80</time>
   <energy>
    <i name="e_fr_energy">   -148.30384357 </i>
    <i name="e_wo_entrp">   -148.30384357 </i>
    <i name="e_0_energy">   -148.30384357 </i>
   </energy>
  </scstep>
  <scstep>
   <time name="total">    2.79    2.80</time>
   <energy>
    <i name="e_fr_energy">   -148.30385989 </i>
    <i name="e_wo_entrp">   -148.30385989 </i>
    <i name="e_0_energy">   -148.30385989 </i>
   </energy>
  </scstep>
  <scstep>
   <time name="total">    2.79    2.80</time>
   <energy>
    <i name="e_fr_energy">   -148.30386294 </i>
    <i name="e_wo_entrp">   -148.30386294 </i>
    <i name="e_0_energy">   -148.30386294 </i>
   </energy>
  </scstep>
  <scstep>
   <time name="total">    2.78    2.79</time>
   <energy>
    <i name="e_fr_energy">   -148.30386382 </i>
    <i name="e_wo_entrp">   -148.30386382 </i>
    <i name="e_0_energy">   -148.30386382 </i>
   </energy>
  </scstep>
  <scstep>
   <time name="total">    2.79    2.80</time>
   <energy>
    <i name="e_fr_energy">   -148.30386418 </i>
    <i name="e_wo_entrp">   -148.30386418 </i>
    <i name="e_0_energy">   -148.30386418 </i>
   </energy>
  </scstep>
  <scstep>
   <time name="total">    2.79    2.79</time>
   <energy>
    <i name="e_fr_energy">   -148.30386424 </i>
    <i name="e_wo_entrp">   -148.30386424 </i>
    <i name="e_0_energy">   -148.30386424 </i>
   </energy>
  </scstep>
  <scstep>
   <time name="total">    3.10    3.11</time>
   <energy>
    <i name="alphaZ">     28.45271577 </i>
    <i name="ewald">  -1140.41017400 </i>
    <i name="hartreedc">   -592.69182226 </i>
    <i name="XCdc">    -35.89125012 </i>
    <i name="pawpsdc">   3222.13244207 </i>
    <i name="pawaedc">  -3147.08363033 </i>
    <i name="eentropy">     -0.00000000 </i>
    <i name="bandstr">   -263.17914452 </i>
    <i name="atom">   1780.36699914 </i>
    <i name="e_fr_energy">   -148.30386425 </i>
    <i name="e_wo_entrp">   -148.30386425 </i>
    <i name="e_0_energy">   -148.30386425 </i>
   </energy>
  </scstep>
  <structure>
   <crystal>
    <varray name="basis" >
     <v>       6.32923732      -0.00294779       0.01740731 </v>
     <v>      -0.00294790       6.33084898       0.01975368 </v>
     <v>       0.01740774       0.01975407       6.33443056 </v>
    </varray>
    <i name="volume">    253.81267560 </i>
    <varray name="rec_basis" >
     <v>       0.15799815       0.00007493      -0.00043443 </v>
     <v>       0.00007492       0.15795827      -0.00049280 </v>
     <v>      -0.00043442      -0.00049279       0.15787012 </v>
    </varray>
   </crystal>
   <varray name="positions" >
    <v>       0.94666672       0.05431255       0.99849778 </v>
    <v>       0.06901788       0.81074659       0.82470404 </v>
    <v>       0.18850703       0.93493726       0.17666618 </v>
    <v>       0.05354020       0.14958990       0.28320513 </v>
    <v>       0.85471232       0.94333832       0.71433598 </v>
    <v>       0.82453347       0.17605211       0.99688146 </v>
    <v>       0.00004726       0.49922400       0.49941019 </v>
    <v>       0.50080524      -0.00006827       0.50058983 </v>
    <v>       0.49908481       0.50092623      -0.00000964 </v>
    <v>       0.06875005       0.04117465       0.16497644 </v>
    <v>       0.96203512       0.93028357       0.83356926 </v>
    <v>       0.50007547       0.49992460       0.49999671 </v>
   </varray>
  </structure>
  <varray name="forces" >
   <v>       0.16457897      -0.19436788      -0.03711701 </v>
   <v>      -0.13439761       0.15528416       0.02319622 </v>
   <v>      -0.12049216       0.10149751      -0.02293492 </v>
   <v>       0.00930238      -0.18175489      -0.24308438 </v>
   <v>       0.14862755       0.00654968       0.20647830 </v>
   <v>       0.10467541      -0.10655524       0.00669923 </v>
   <v>       0.00719953      -0.08801174      -0.06400398 </v>
   <v>       0.09021310      -0.00933400       0.06268103 </v>
   <v>      -0.10473208       0.10583651      -0.00122186 </v>
   <v>      -0.15525929       0.08159757      -0.16258531 </v>
   <v>      -0.01892675       0.13830380       0.23214781 </v>
   <v>       0.00921097      -0.00904549      -0.00025513 </v>
  </varray>
  <varray name="stress" >
   <v>      -0.72729587       1.49153281       0.95922844 </v>
   <v>       1.49149488      -0.98257349       0.82029802 </v>
   <v>       0.95939348       0.82024734      -4.45802760 </v>
  </varray>
  <energy>
   <i name="e_fr_energy">   -148.30386425 </i>
   <i name="e_wo_entrp">   -148.30386425 </i>
   <i name="e_0_energy">   -148.30386425 </i>
  </energy>
  <time name="totalsc">   27.53   27.59</time>
 </calculation>
 <calculation>
  <scstep>
   <time name="total">    2.78    2.78</time>
   <energy>
    <i name="alphaZ">     28.35340222 </i>
    <i name="ewald">  -1137.28805456 </i>
    <i name="hartreedc">   -592.83896842 </i>
    <i name="XCdc">    -35.96045598 </i>
    <i name="pawpsdc">   3254.74038215 </i>
    <i name="pawaedc">  -3179.66998057 </i>
    <i name="eentropy">     -0.00000000 </i>
    <i name="bandstr">   -265.97142755 </i>
    <i name="atom">   1780.36699914 </i>
    <i name="e_fr_energy">   -148.26810356 </i>
    <i name="e_wo_entrp">   -148.26810356 </i>
    <i name="e_0_energy">   -148.26810356 </i>
   </energy>
  </scstep>
  <scstep>
   <time name="total">    2.80    2.80</time>
   <energy>
    <i name="e_fr_energy">   -148.30138205 </i>
    <i name="e_wo_entrp">   -148.30138205 </i>
    <i name="e_0_energy">   -148.30138205 </i>
   </energy>
  </scstep>
  <scstep>
   <time name="total">    2.79    2.80</time>
   <energy>
    <i name="e_fr_energy">   -148.30922686 </i>
    <i name="e_wo_entrp">   -148.30922686 </i>
    <i name="e_0_energy">   -148.30922686 </i>
   </energy>
  </scstep>
  <scstep>
   <time name="total">    2.80    2.80</time>
   <energy>
    <i name="e_fr_energy">   -148.31078786 </i>
    <i name="e_wo_entrp">   -148.31078786 </i>
    <i name="e_0_energy">   -148.31078786 </i>
   </energy>
  </scstep>
  <scstep>
   <time name="total">    2.79    2.80</time>
   <energy>
    <i name="e_fr_energy">   -148.31109697 </i>
    <i name="e_wo_entrp">   -148.31109697 </i>
    <i name="e_0_energy">   -148.31109697 </i>
   </energy>
  </scstep>
  <scstep>
   <time name="total">    2.79    2.80</time>
   <energy>
    <i name="e_fr_energy">   -148.31118910 </i>
    <i name="e_wo_entrp">   -148.31118910 </i>
    <i name="e_0_energy">   -148.31118910 </i>
   </energy>
  </scstep>
  <scstep>
   <time name="total">    2.81    2.81</time>
   <energy>
    <i name="e_fr_energy">   -148.31121991 </i>
    <i name="e_wo_entrp">   -148.31121991 </i>
    <i name="e_0_energy">   -148.31121991 </i>
   </energy>
  </scstep>
  <scstep>
   <time name="total">    2.79    2.80</time>
   <energy>
    <i name="e_fr_energy">   -148.31122871 </i>
    <i name="e_wo_entrp">   -148.31122871 </i>
    <i name="e_0_energy">   -148.31122871 </i>
   </energy>
  </scstep>
  <scstep>
   <time name="total">    3.12    3.13</time>
   <energy>
    <i name="alphaZ">     28.35340222 </i>
    <i name="ewald">  -1137.28805456 </i>
    <i name="hartreedc">   -594.59636574 </i>
    <i name="XCdc">    -35.89217768 </i>
    <i name="pawpsdc">   3225.78202603 </i>
    <i name="pawaedc">  -3150.72962595 </i>
    <i name="eentropy">     -0.00000000 </i>
    <i name="bandstr">   -264.30743423 </i>
    <i name="atom">   1780.36699914 </i>
    <i name="e_fr_energy">   -148.31123077 </i>
    <i name="e_wo_entrp">   -148.31123077 </i>
    <i name="e_0_energy">   -148.31123077 </i>
   </energy>
  </scstep>
  <structure>
   <crystal>
    <varray name="basis" >
     <v>       6.33755375      -0.00208373       0.02619383 </v>
     <v>      -0.00208253       6.33950164       0.02935044 </v>
     <v>       0.02621731       0.02937324       6.33974618 </v>
    </varray>
    <i name="volume">    254.70170604 </i>
    <varray name="rec_basis" >
     <v>       0.15779230       0.00005486      -0.00065279 </v>
     <v>       0.00005489       0.15774451      -0.00073109 </v>
     <v>      -0.00065220      -0.00073052       0.15774110 </v>
    </varray>
   </crystal>
   <varray name="positions" >
    <v>       0.94709366       0.05379192       0.99842831 </v>
    <v>       0.06866911       0.81113615       0.82475426 </v>
    <v>       0.18817167       0.93521558       0.17659793 </v>
    <v>       0.05357298       0.14912900       0.28256241 </v>
    <v>       0.85512504       0.94334979       0.71487415 </v>
    <v>       0.82481502       0.17576653       0.99692277 </v>
    <v>       0.00008731       0.49866236       0.49899186 </v>
    <v>       0.50138542      -0.00012302       0.50100488 </v>
    <v>       0.49841859       0.50159995      -0.00001724 </v>
    <v>       0.06834403       0.04137282       0.16452049 </v>
    <v>       0.96196078       0.93067180       0.83418888 </v>
    <v>       0.50013195       0.49986862       0.49999466 </v>
   </varray>
  </structure>
  <varray name="forces" >
   <v>      -0.07879070       0.10008489       0.03131078 </v>
   <v>      -0.12723931       0.16026818       0.03763873 </v>
   <v>      -0.15882276       0.13160892      -0.03080726 </v>
   <v>      -0.02978042      -0.12366260      -0.22421858 </v>
   <v>       0.13794880       0.03792426       0.23882003 </v>
   <v>       0.16451123      -0.17222479      -0.00048441 </v>
   <v>       0.00668581      -0.07753438      -0.05537708 </v>
   <v>       0.08184566      -0.00887215       0.05593158 </v>
   <v>      -0.09999719       0.10131266      -0.00116428 </v>
   <v>       0.05143809      -0.07494727      -0.08586506 </v>
   <v>       0.04285021      -0.06479119       0.03450875 </v>
   <v>       0.00935057      -0.00916654      -0.00029320 </v>
  </varray>
  <varray name="stress" >
   <v>      -1.37852646       1.45661673       0.88191442 </v>
   <v>       1.45657371      -1.27306556       1.19678707 </v>
   <v>       0.88211824       1.19669903      -3.77368884 </v>
  </varray>
  <energy>
   <i name="e_fr_energy">   -148.31123077 </i>
   <i name="e_wo_entrp">   -148.31123077 </i>
   <i name="e_0_energy">   -148.31123077 </i>
  </energy>
  <time name="totalsc">   30.45   30.50</time>
 </calculation>
 <calculation>
  <scstep>
   <time name="total">    2.79    2.79</time>
   <energy>
    <i name="alphaZ">     28.21341400 </i>
    <i name="ewald">  -1132.83746671 </i>
    <i name="hartreedc">   -594.80605662 </i>
    <i name="XCdc">    -35.99038700 </i>
    <i name="pawpsdc">   3276.39112463 </i>
    <i name="pawaedc">  -3201.30845425 </i>
    <i name="eentropy">     -0.00000000 </i>
    <i name="bandstr">   -268.25731600 </i>
    <i name="atom">   1780.36699914 </i>
    <i name="e_fr_energy">   -148.22814281 </i>
    <i name="e_wo_entrp">   -148.22814281 </i>
    <i name="e_0_energy">   -148.22814281 </i>
   </energy>
  </scstep>
  <scstep>
   <time name="total">    2.80    2.80</time>
   <energy>
    <i name="e_fr_energy">   -148.29516531 </i>
    <i name="e_wo_entrp">   -148.29516531 </i>
    <i name="e_0_energy">   -148.29516531 </i>
   </energy>
  </scstep>
  <scstep>
   <time name="total">    2.79    2.80</time>
   <energy>
    <i name="e_fr_energy">   -148.31102509 </i>
    <i name="e_wo_entrp">   -148.31102509 </i>
    <i name="e_0_energy">   -148.31102509 </i>
   </energy>
  </scstep>
  <scstep>
   <time name="total">    2.80    2.80</time>
   <energy>
    <i name="e_fr_energy">   -148.31419005 </i>
    <i name="e_wo_entrp">   -148.31419005 </i>
    <i name="e_0_energy">   -148.31419005 </i>
   </energy>
  </scstep>
  <scstep>
   <time name="total">    2.80    2.81</time>
   <energy>
    <i name="e_fr_energy">   -148.31481898 </i>
    <i name="e_wo_entrp">   -148.31481898 </i>
    <i name="e_0_energy">   -148.31481898 </i>
   </energy>
  </scstep>
  <scstep>
   <time name="total">    2.80    2.81</time>
   <energy>
    <i name="e_fr_energy">   -148.31500626 </i>
    <i name="e_wo_entrp">   -148.31500626 </i>
    <i name="e_0_energy">   -148.31500626 </i>
   </energy>
  </scstep>
  <scstep>
   <time name="total">    2.80    2.81</time>
   <energy>
    <i name="e_fr_energy">   -148.31506899 </i>
    <i name="e_wo_entrp">   -148.31506899 </i>
    <i name="e_0_energy">   -148.31506899 </i>
   </energy>
  </scstep>
  <scstep>
   <time name="total">    2.79    2.80</time>
   <energy>
    <i name="e_fr_energy">   -148.31508715 </i>
    <i name="e_wo_entrp">   -148.31508715 </i>
    <i name="e_0_energy">   -148.31508715 </i>
   </energy>
  </scstep>
  <scstep>
   <time name="total">    3.12    3.15</time>
   <energy>
    <i name="alphaZ">     28.21341400 </i>
    <i name="ewald">  -1132.83746671 </i>
    <i name="hartreedc">   -597.32741182 </i>
    <i name="XCdc">    -35.89244463 </i>
    <i name="pawpsdc">   3231.19207844 </i>
    <i name="pawaedc">  -3156.13488903 </i>
    <i name="eentropy">     -0.00000000 </i>
    <i name="bandstr">   -265.89537075 </i>
    <i name="atom">   1780.36699914 </i>
    <i name="e_fr_energy">   -148.31509136 </i>
    <i name="e_wo_entrp">   -148.31509136 </i>
    <i name="e_0_energy">   -148.31509136 </i>
   </energy>
  </scstep>
  <structure>
   <crystal>
    <varray name="basis" >
     <v>       6.34937765      -0.00085524       0.03868605 </v>
     <v>      -0.00085219       6.35180358       0.04299463 </v>
     <v>       0.03874232       0.04304931       6.34730366 </v>
    </varray>
    <i name="volume">    255.96547506 </i>
    <varray name="rec_basis" >
     <v>       0.15750161       0.00002764      -0.00096154 </v>
     <v>       0.00002771       0.15744283      -0.00106799 </v>
     <v>      -0.00096014      -0.00106664       0.15756031 </v>
    </varray>
   </crystal>
   <varray name="positions" >
    <v>       0.94770011       0.05305280       0.99832990 </v>
    <v>       0.06817372       0.81168920       0.82482544 </v>
    <v>       0.18769557       0.93561097       0.17650104 </v>
    <v>       0.05362089       0.14847600       0.28165031 </v>
    <v>       0.85570999       0.94336484       0.71563784 </v>
    <v>       0.82521478       0.17536092       0.99698152 </v>
    <v>       0.00014511       0.49786583       0.49839871 </v>
    <v>       0.50220840      -0.00020177       0.50159345 </v>
    <v>       0.49747251       0.50255666      -0.00002817 </v>
    <v>       0.06776840       0.04165523       0.16387316 </v>
    <v>       0.96185393       0.93122169       0.83506841 </v>
    <v>       0.50021215       0.49978913       0.49999175 </v>
   </varray>
  </structure>
  <varray name="forces" >
   <v>      -0.42296640       0.52169509       0.13501194 </v>
   <v>      -0.11705013       0.16783019       0.05863539 </v>
   <v>      -0.21260387       0.17330678      -0.04264964 </v>
   <v>      -0.08509060      -0.04024900      -0.19606837 </v>
   <v>       0.12272270       0.08280046       0.28474317 </v>
   <v>       0.24709809      -0.26332715      -0.01087878 </v>
   <v>       0.00583337      -0.06316156      -0.04350189 </v>
   <v>       0.07040958      -0.00815281       0.04657613 </v>
   <v>      -0.09289693       0.09457403      -0.00108078 </v>
   <v>       0.34495125      -0.29618506       0.02417262 </v>
   <v>       0.12982614      -0.35973264      -0.25478423 </v>
   <v>       0.00976681      -0.00939833      -0.00017557 </v>
  </varray>
  <varray name="stress" >
   <v>      -2.26672481       1.41004694       0.80149347 </v>
   <v>       1.41000149      -1.63632045       1.78704309 </v>
   <v>       0.80172370       1.78692015      -2.72006721 </v>
  </varray>
  <energy>
   <i name="e_fr_energy">   -148.31509136 </i>
   <i name="e_wo_entrp">   -148.31509136 </i>
   <i name="e_0_energy">   -148.31509136 </i>
  </energy>
  <time name="totalsc">   30.46   30.55</time>
 </calculation>
 <calculation>
  <scstep>
   <time name="total">    2.79    2.79</time>
   <energy>
    <i name="alphaZ">     28.17773299 </i>
    <i name="ewald">  -1131.75630171 </i>
    <i name="hartreedc">   -597.35390212 </i>
    <i name="XCdc">    -35.91359874 </i>
    <i name="pawpsdc">   3241.06692404 </i>
    <i name="pawaedc">  -3166.00206637 </i>
    <i name="eentropy">     -0.00000000 </i>
    <i name="bandstr">   -266.89872604 </i>
    <i name="atom">   1780.36699914 </i>
    <i name="e_fr_energy">   -148.31293880 </i>
    <i name="e_wo_entrp">   -148.31293880 </i>
    <i name="e_0_energy">   -148.31293880 </i>
   </energy>
  </scstep>
  <scstep>
   <time name="total">    2.80    2.80</time>
   <energy>
    <i name="e_fr_energy">   -148.31763984 </i>
    <i name="e_wo_entrp">   -148.31763984 </i>
    <i name="e_0_energy">   -148.31763984 </i>
   </energy>
  </scstep>
  <scstep>
   <time name="total">    2.79    2.79</time>
   <energy>
    <i name="e_fr_energy">   -148.31855581 </i>
    <i name="e_wo_entrp">   -148.31855581 </i>
    <i name="e_0_energy">   -148.31855581 </i>
   </energy>
  </scstep>
  <scstep>
   <time name="total">    2.80    2.80</time>
   <energy>
    <i name="e_fr_energy">   -148.31874611 </i>
    <i name="e_wo_entrp">   -148.31874611 </i>
    <i name="e_0_energy">   -148.31874611 </i>
   </energy>
  </scstep>
  <scstep>
   <time name="total">    2.80    2.80</time>
   <energy>
    <i name="e_fr_energy">   -148.31878736 </i>
    <i name="e_wo_entrp">   -148.31878736 </i>
    <i name="e_0_energy">   -148.31878736 </i>
   </energy>
  </scstep>
  <scstep>
   <time name="total">    2.81    2.82</time>
   <energy>
    <i name="e_fr_energy">   -148.31880064 </i>
    <i name="e_wo_entrp">   -148.31880064 </i>
    <i name="e_0_energy">   -148.31880064 </i>
   </energy>
  </scstep>
  <scstep>
   <time name="total">    2.81    2.81</time>
   <energy>
    <i name="e_fr_energy">   -148.31880500 </i>
    <i name="e_wo_entrp">   -148.31880500 </i>
    <i name="e_0_energy">   -148.31880500 </i>
   </energy>
  </scstep>
  <scstep>
   <time name="total">    3.12    3.13</time>
   <energy>
    <i name="alphaZ">     28.17773299 </i>
    <i name="ewald">  -1131.75630171 </i>
    <i name="hartreedc">   -597.92242643 </i>
    <i name="XCdc">    -35.88427483 </i>
    <i name="pawpsdc">   3231.60424289 </i>
    <i name="pawaedc">  -3156.54627683 </i>
    <i name="eentropy">     -0.00000000 </i>
    <i name="bandstr">   -266.35850137 </i>
    <i name="atom">   1780.36699914 </i>
    <i name="e_fr_energy">   -148.31880614 </i>
    <i name="e_wo_entrp">   -148.31880614 </i>
    <i name="e_0_energy">   -148.31880614 </i>
   </energy>
  </scstep>
  <structure>
   <crystal>
    <varray name="basis" >
     <v>       6.35246223      -0.00011311       0.04272200 </v>
     <v>      -0.00011069       6.35519464       0.04762762 </v>
     <v>       0.04279143       0.04769571       6.34898315 </v>
    </varray>
    <i name="volume">    256.28960003 </i>
    <varray name="rec_basis" >
     <v>       0.15742641       0.00001069      -0.00106112 </v>
     <v>       0.00001075       0.15736045      -0.00118222 </v>
     <v>      -0.00105940      -0.00118053       0.15752155 </v>
    </varray>
   </crystal>
   <varray name="positions" >
    <v>       0.94769102       0.05306594       0.99836147 </v>
    <v>       0.06796853       0.81193482       0.82487384 </v>
    <v>       0.18745284       0.93581136       0.17645194 </v>
    <v>       0.05359761       0.14825936       0.28128240 </v>
    <v>       0.85594365       0.94340600       0.71600090 </v>
    <v>       0.82545019       0.17511631       0.99699463 </v>
    <v>       0.00016595       0.49759419       0.49819817 </v>
    <v>       0.50249152      -0.00023012       0.50179406 </v>
    <v>       0.49714098       0.50289219      -0.00003210 </v>
    <v>       0.06775115       0.04160605       0.16368657 </v>
    <v>       0.96188099       0.93122485       0.83522069 </v>
    <v>       0.50024112       0.49976055       0.49999079 </v>
   </varray>
  </structure>
  <varray name="forces" >
   <v>      -0.37354345       0.45331022       0.10618078 </v>
   <v>      -0.06744573       0.11802331       0.06197798 </v>
   <v>      -0.16290689       0.12402440      -0.04514524 </v>
   <v>      -0.09010178      -0.02286645      -0.18072188 </v>
   <v>       0.09525801       0.08895770       0.25934578 </v>
   <v>       0.20791635      -0.22430131      -0.01137964 </v>
   <v>       0.00534643      -0.05906809      -0.04042267 </v>
   <v>       0.06569267      -0.00748693       0.04282513 </v>
   <v>      -0.09040386       0.09195198      -0.00097366 </v>
   <v>       0.29874537      -0.25930983       0.01267980 </v>
   <v>       0.10154186      -0.29375448      -0.20411241 </v>
   <v>       0.00990101      -0.00948053      -0.00025397 </v>
  </varray>
  <varray name="stress" >
   <v>      -1.85352260       0.78375452       0.81182285 </v>
   <v>       0.78371451      -1.40208472       1.55351114 </v>
   <v>       0.81206504       1.55338437      -2.98180502 </v>
  </varray>
  <energy>
   <i name="e_fr_energy">   -148.31880614 </i>
   <i name="e_wo_entrp">   -148.31880614 </i>
   <i name="e_0_energy">   -148.31880614 </i>
  </energy>
  <time name="totalsc">   27.69   27.74</time>
 </calculation>
 <calculation>
  <scstep>
   <time name="total">    2.79    2.79</time>
   <energy>
    <i name="alphaZ">     28.07137436 </i>
    <i name="ewald">  -1128.49639639 </i>
    <i name="hartreedc">   -597.97543484 </i>
    <i name="XCdc">    -35.95025149 </i>
    <i name="pawpsdc">   3265.86366048 </i>
    <i name="pawaedc">  -3190.78295057 </i>
    <i name="eentropy">     -0.00000000 </i>
    <i name="bandstr">   -269.37060402 </i>
    <i name="atom">   1780.36699914 </i>
    <i name="e_fr_energy">   -148.27360332 </i>
    <i name="e_wo_entrp">   -148.27360332 </i>
    <i name="e_0_energy">   -148.27360332 </i>
   </energy>
  </scstep>
  <scstep>
   <time name="total">    2.79    2.80</time>
   <energy>
    <i name="e_fr_energy">   -148.31586328 </i>
    <i name="e_wo_entrp">   -148.31586328 </i>
    <i name="e_0_energy">   -148.31586328 </i>
   </energy>
  </scstep>
  <scstep>
   <time name="total">    2.79    2.80</time>
   <energy>
    <i name="e_fr_energy">   -148.32414608 </i>
    <i name="e_wo_entrp">   -148.32414608 </i>
    <i name="e_0_energy">   -148.32414608 </i>
   </energy>
  </scstep>
  <scstep>
   <time name="total">    2.80    2.80</time>
   <energy>
    <i name="e_fr_energy">   -148.32587816 </i>
    <i name="e_wo_entrp">   -148.32587816 </i>
    <i name="e_0_energy">   -148.32587816 </i>
   </energy>
  </scstep>
  <scstep>
   <time name="total">    2.78    2.79</time>
   <energy>
    <i name="e_fr_energy">   -148.32625516 </i>
    <i name="e_wo_entrp">   -148.32625516 </i>
    <i name="e_0_energy">   -148.32625516 </i>
   </energy>
  </scstep>
  <scstep>
   <time name="total">    2.78    2.79</time>
   <energy>
    <i name="e_fr_energy">   -148.32637383 </i>
    <i name="e_wo_entrp">   -148.32637383 </i>
    <i name="e_0_energy">   -148.32637383 </i>
   </energy>
  </scstep>
  <scstep>
   <time name="total">    2.79    2.79</time>
   <energy>
    <i name="e_fr_energy">   -148.32641303 </i>
    <i name="e_wo_entrp">   -148.32641303 </i>
    <i name="e_0_energy">   -148.32641303 </i>
   </energy>
  </scstep>
  <scstep>
   <time name="total">    2.79    2.80</time>
   <energy>
    <i name="e_fr_energy">   -148.32642394 </i>
    <i name="e_wo_entrp">   -148.32642394 </i>
    <i name="e_0_energy">   -148.32642394 </i>
   </energy>
  </scstep>
  <scstep>
   <time name="total">    3.09    3.10</time>
   <energy>
    <i name="alphaZ">     28.07137436 </i>
    <i name="ewald">  -1128.49639639 </i>
    <i name="hartreedc">   -599.71009212 </i>
    <i name="XCdc">    -35.86003032 </i>
    <i name="pawpsdc">   3232.98597458 </i>
    <i name="pawaedc">  -3157.92553323 </i>
    <i name="eentropy">     -0.00000000 </i>
    <i name="bandstr">   -267.75872255 </i>
    <i name="atom">   1780.36699914 </i>
    <i name="e_fr_energy">   -148.32642653 </i>
    <i name="e_wo_entrp">   -148.32642653 </i>
    <i name="e_0_energy">   -148.32642653 </i>
   </energy>
  </scstep>
  <structure>
   <crystal>
    <varray name="basis" >
     <v>       6.36171599       0.00211328       0.05482984 </v>
     <v>       0.00211382       6.36536784       0.06152659 </v>
     <v>       0.05493876       0.06163491       6.35402161 </v>
    </varray>
    <i name="volume">    257.26064654 </i>
    <varray name="rec_basis" >
     <v>       0.15720202      -0.00003907      -0.00135884 </v>
     <v>      -0.00003906       0.15711485      -0.00152370 </v>
     <v>      -0.00135614      -0.00152102       0.15740712 </v>
    </varray>
   </crystal>
   <varray name="positions" >
    <v>       0.94766370       0.05310526       0.99845616 </v>
    <v>       0.06735309       0.81267123       0.82501885 </v>
    <v>       0.18672501       0.93641243       0.17630472 </v>
    <v>       0.05352859       0.14761061       0.28017945 </v>
    <v>       0.85664359       0.94352853       0.71708927 </v>
    <v>       0.82615615       0.17438278       0.99703404 </v>
    <v>       0.00022893       0.49678012       0.49759725 </v>
    <v>       0.50334008      -0.00031566       0.50239525 </v>
    <v>       0.49614675       0.50389836      -0.00004398 </v>
    <v>       0.06769982       0.04145898       0.16312708 </v>
    <v>       0.96196183       0.93123400       0.83567736 </v>
    <v>       0.50032802       0.49967485       0.49998791 </v>
   </varray>
  </structure>
  <varray name="forces" >
   <v>      -0.21973199       0.24230074       0.01955144 </v>
   <v>       0.08401608      -0.03434265       0.07150627 </v>
   <v>      -0.01103757      -0.02626040      -0.05209492 </v>
   <v>      -0.10560894       0.02993072      -0.13455317 </v>
   <v>       0.01135346       0.10800009       0.18215435 </v>
   <v>       0.08645289      -0.10346093      -0.01311884 </v>
   <v>       0.00325896      -0.04988302      -0.03263485 </v>
   <v>       0.05422588      -0.00483926       0.03298554 </v>
   <v>      -0.08443447       0.08545299      -0.00073404 </v>
   <v>       0.15760965      -0.14397907      -0.01712437 </v>
   <v>       0.01329477      -0.09290909      -0.05582669 </v>
   <v>       0.01060127      -0.01001012      -0.00011073 </v>
  </varray>
  <varray name="stress" >
   <v>      -0.51752627      -1.11305261       0.83895598 </v>
   <v>      -1.11306771      -0.60856314       0.85183670 </v>
   <v>       0.83921722       0.85170943      -3.71351963 </v>
  </varray>
  <energy>
   <i name="e_fr_energy">   -148.32642653 </i>
   <i name="e_wo_entrp">   -148.32642653 </i>
   <i name="e_0_energy">   -148.32642653 </i>
  </energy>
  <time name="totalsc">   30.36   30.42</time>
 </calculation>
 <calculation>
  <scstep>
   <time name="total">    2.80    2.80</time>
   <energy>
    <i name="alphaZ">     27.86169485 </i>
    <i name="ewald">  -1121.90592575 </i>
    <i name="hartreedc">   -599.80691189 </i>
    <i name="XCdc">    -35.99368597 </i>
    <i name="pawpsdc">   3315.17996541 </i>
    <i name="pawaedc">  -3240.07637896 </i>
    <i name="eentropy">     -0.00000000 </i>
    <i name="bandstr">   -273.73995623 </i>
    <i name="atom">   1780.36699914 </i>
    <i name="e_fr_energy">   -148.11419941 </i>
    <i name="e_wo_entrp">   -148.11419941 </i>
    <i name="e_0_energy">   -148.11419941 </i>
   </energy>
  </scstep>
  <scstep>
   <time name="total">    2.79    2.80</time>
   <energy>
    <i name="e_fr_energy">   -148.28305105 </i>
    <i name="e_wo_entrp">   -148.28305105 </i>
    <i name="e_0_energy">   -148.28305105 </i>
   </energy>
  </scstep>
  <scstep>
   <time name="total">    2.79    2.80</time>
   <energy>
    <i name="e_fr_energy">   -148.31633383 </i>
    <i name="e_wo_entrp">   -148.31633383 </i>
    <i name="e_0_energy">   -148.31633383 </i>
   </energy>
  </scstep>
  <scstep>
   <time name="total">    2.79    2.79</time>
   <energy>
    <i name="e_fr_energy">   -148.32330688 </i>
    <i name="e_wo_entrp">   -148.32330688 </i>
    <i name="e_0_energy">   -148.32330688 </i>
   </energy>
  </scstep>
  <scstep>
   <time name="total">    2.81    2.82</time>
   <energy>
    <i name="e_fr_energy">   -148.32483153 </i>
    <i name="e_wo_entrp">   -148.32483153 </i>
    <i name="e_0_energy">   -148.32483153 </i>
   </energy>
  </scstep>
  <scstep>
   <time name="total">    2.85    2.86</time>
   <energy>
    <i name="e_fr_energy">   -148.32530940 </i>
    <i name="e_wo_entrp">   -148.32530940 </i>
    <i name="e_0_energy">   -148.32530940 </i>
   </energy>
  </scstep>
  <scstep>
   <time name="total">    2.79    2.79</time>
   <energy>
    <i name="e_fr_energy">   -148.32546750 </i>
    <i name="e_wo_entrp">   -148.32546750 </i>
    <i name="e_0_energy">   -148.32546750 </i>
   </energy>
  </scstep>
  <scstep>
   <time name="total">    2.78    2.79</time>
   <energy>
    <i name="e_fr_energy">   -148.32551232 </i>
    <i name="e_wo_entrp">   -148.32551232 </i>
    <i name="e_0_energy">   -148.32551232 </i>
   </energy>
  </scstep>
  <scstep>
   <time name="total">    2.79    2.79</time>
   <energy>
    <i name="e_fr_energy">   -148.32552275 </i>
    <i name="e_wo_entrp">   -148.32552275 </i>
    <i name="e_0_energy">   -148.32552275 </i>
   </energy>
  </scstep>
  <scstep>
   <time name="total">    3.11    3.12</time>
   <energy>
    <i name="alphaZ">     27.86169485 </i>
    <i name="ewald">  -1121.90592575 </i>
    <i name="hartreedc">   -603.38049130 </i>
    <i name="XCdc">    -35.80605775 </i>
    <i name="pawpsdc">   3236.38883504 </i>
    <i name="pawaedc">  -3161.32417299 </i>
    <i name="eentropy">     -0.00000000 </i>
    <i name="bandstr">   -270.52640639 </i>
    <i name="atom">   1780.36699914 </i>
    <i name="e_fr_energy">   -148.32552514 </i>
    <i name="e_wo_entrp">   -148.32552514 </i>
    <i name="e_0_energy">   -148.32552514 </i>
   </energy>
  </scstep>
  <structure>
   <crystal>
    <varray name="basis" >
     <v>       6.38022350       0.00656605       0.07904551 </v>
     <v>       0.00656283       6.38571422       0.08932453 </v>
     <v>       0.07923342       0.08951330       6.36409854 </v>
    </varray>
    <i name="volume">    259.19671997 </i>
    <varray name="rec_basis" >
     <v>       0.15675862      -0.00013383      -0.00194977 </v>
     <v>      -0.00013392       0.15663049      -0.00220140 </v>
     <v>      -0.00194515      -0.00219676       0.15718656 </v>
    </varray>
   </crystal>
   <varray name="positions" >
    <v>       0.94760874       0.05318340       0.99864531 </v>
    <v>       0.06612295       0.81414150       0.82530780 </v>
    <v>       0.18527162       0.93761380       0.17601064 </v>
    <v>       0.05339537       0.14632000       0.27797829 </v>
    <v>       0.85803723       0.94376800       0.71926120 </v>
    <v>       0.82756637       0.17291739       0.99711331 </v>
    <v>       0.00035751       0.49515714       0.49639962 </v>
    <v>       0.50503254      -0.00048967       0.50359389 </v>
    <v>       0.49416053       0.50590826      -0.00006833 </v>
    <v>       0.06759953       0.04116780       0.16200978 </v>
    <v>       0.96212152       0.93125022       0.83658967 </v>
    <v>       0.50050164       0.49950367       0.49998220 </v>
   </varray>
  </structure>
  <varray name="forces" >
   <v>       0.10054289      -0.19188581      -0.14949343 </v>
   <v>       0.40313424      -0.35651241       0.08702229 </v>
   <v>       0.30925193      -0.34180127      -0.06204924 </v>
   <v>      -0.13744096       0.14002528      -0.03841225 </v>
   <v>      -0.16457004       0.14726796       0.01982963 </v>
   <v>      -0.16964410       0.15115622      -0.01679339 </v>
   <v>      -0.00100647      -0.03068071      -0.01697416 </v>
   <v>       0.03130826       0.00037028       0.01335612 </v>
   <v>      -0.07208240       0.07205284      -0.00006247 </v>
   <v>      -0.14251098       0.09569993      -0.08818653 </v>
   <v>      -0.16942579       0.32564325       0.25184941 </v>
   <v>       0.01244341      -0.01133554      -0.00008596 </v>
  </varray>
  <varray name="stress" >
   <v>       2.33174793      -5.03459172       0.94900293 </v>
   <v>      -5.03451717       1.16681242      -0.47846199 </v>
   <v>       0.94916740      -0.47848852      -5.06021559 </v>
  </varray>
  <energy>
   <i name="e_fr_energy">   -148.32552514 </i>
   <i name="e_wo_entrp">   -148.32552514 </i>
   <i name="e_0_energy">   -148.32552514 </i>
  </energy>
  <time name="totalsc">   33.26   33.36</time>
 </calculation>
 <calculation>
  <scstep>
   <time name="total">    2.79    2.79</time>
   <energy>
    <i name="alphaZ">     27.97556177 </i>
    <i name="ewald">  -1125.49866910 </i>
    <i name="hartreedc">   -603.27436592 </i>
    <i name="XCdc">    -35.74158851 </i>
    <i name="pawpsdc">   3214.98834010 </i>
    <i name="pawaedc">  -3139.94985012 </i>
    <i name="eentropy">     -0.00000000 </i>
    <i name="bandstr">   -267.13246153 </i>
    <i name="atom">   1780.36699914 </i>
    <i name="e_fr_energy">   -148.26603417 </i>
    <i name="e_wo_entrp">   -148.26603417 </i>
    <i name="e_0_energy">   -148.26603417 </i>
   </energy>
  </scstep>
  <scstep>
   <time name="total">    2.78    2.79</time>
   <energy>
    <i name="e_fr_energy">   -148.31603065 </i>
    <i name="e_wo_entrp">   -148.31603065 </i>
    <i name="e_0_energy">   -148.31603065 </i>
   </energy>
  </scstep>
  <scstep>
   <time name="total">    2.78    2.79</time>
   <energy>
    <i name="e_fr_energy">   -148.32594670 </i>
    <i name="e_wo_entrp">   -148.32594670 </i>
    <i name="e_0_energy">   -148.32594670 </i>
   </energy>
  </scstep>
  <scstep>
   <time name="total">    2.79    2.79</time>
   <energy>
    <i name="e_fr_energy">   -148.32805432 </i>
    <i name="e_wo_entrp">   -148.32805432 </i>
    <i name="e_0_energy">   -148.32805432 </i>
   </energy>
  </scstep>
  <scstep>
   <time name="total">    2.79    2.80</time>
   <energy>
    <i name="e_fr_energy">   -148.32851763 </i>
    <i name="e_wo_entrp">   -148.32851763 </i>
    <i name="e_0_energy">   -148.32851763 </i>
   </energy>
  </scstep>
  <scstep>
   <time name="total">    2.78    2.79</time>
   <energy>
    <i name="e_fr_energy">   -148.32866208 </i>
    <i name="e_wo_entrp">   -148.32866208 </i>
    <i name="e_0_energy">   -148.32866208 </i>
   </energy>
  </scstep>
  <scstep>
   <time name="total">    2.79    2.79</time>
   <energy>
    <i name="e_fr_energy">   -148.32870975 </i>
    <i name="e_wo_entrp">   -148.32870975 </i>
    <i name="e_0_energy">   -148.32870975 </i>
   </energy>
  </scstep>
  <scstep>
   <time name="total">    2.78    2.79</time>
   <energy>
    <i name="e_fr_energy">   -148.32872355 </i>
    <i name="e_wo_entrp">   -148.32872355 </i>
    <i name="e_0_energy">   -148.32872355 </i>
   </energy>
  </scstep>
  <scstep>
   <time name="total">    3.11    3.12</time>
   <energy>
    <i name="alphaZ">     27.97556177 </i>
    <i name="ewald">  -1125.49866910 </i>
    <i name="hartreedc">   -601.37813785 </i>
    <i name="XCdc">    -35.83554863 </i>
    <i name="pawpsdc">   3234.67449559 </i>
    <i name="pawaedc">  -3159.61211489 </i>
    <i name="eentropy">     -0.00000000 </i>
    <i name="bandstr">   -269.02131253 </i>
    <i name="atom">   1780.36699914 </i>
    <i name="e_fr_energy">   -148.32872650 </i>
    <i name="e_wo_entrp">   -148.32872650 </i>
    <i name="e_0_energy">   -148.32872650 </i>
   </energy>
  </scstep>
  <structure>
   <crystal>
    <varray name="basis" >
     <v>       6.37012898       0.00413738       0.06583761 </v>
     <v>       0.00413622       6.37461673       0.07416275 </v>
     <v>       0.06598243       0.07430764       6.35860230 </v>
    </varray>
    <i name="volume">    258.14173019 </i>
    <varray name="rec_basis" >
     <v>       0.15699957      -0.00008293      -0.00162820 </v>
     <v>      -0.00008296       0.15689355      -0.00183262 </v>
     <v>      -0.00162462      -0.00182905       0.15730550 </v>
    </varray>
   </crystal>
   <varray name="positions" >
    <v>       0.94763905       0.05314135       0.99854236 </v>
    <v>       0.06679310       0.81334233       0.82515137 </v>
    <v>       0.18606189       0.93695938       0.17617065 </v>
    <v>       0.05346283       0.14701647       0.27917378 </v>
    <v>       0.85728383       0.94364342       0.71808174 </v>
    <v>       0.82679904       0.17371484       0.99706958 </v>
    <v>       0.00028454       0.49603680       0.49704832 </v>
    <v>       0.50411447      -0.00039163       0.50294414 </v>
    <v>       0.49524143       0.50481468      -0.00005441 </v>
    <v>       0.06765167       0.04132344       0.16261739 </v>
    <v>       0.96203656       0.93124362       0.83609317 </v>
    <v>       0.50040714       0.49959679       0.49998526 </v>
   </varray>
  </structure>
  <varray name="forces" >
   <v>      -0.07665259       0.04689433      -0.05832040 </v>
   <v>       0.22707655      -0.17845638       0.07917138 </v>
   <v>       0.13230016      -0.16793549      -0.05742426 </v>
   <v>      -0.12008824       0.08026817      -0.09031863 </v>
   <v>      -0.06840331       0.12580889       0.10831168 </v>
   <v>      -0.02764758       0.00999226      -0.01476908 </v>
   <v>       0.00152759      -0.03977833      -0.02485556 </v>
   <v>       0.04265492      -0.00261472       0.02354047 </v>
   <v>      -0.07817783       0.07886909      -0.00036467 </v>
   <v>       0.02436321      -0.03703010      -0.04868624 </v>
   <v>      -0.06820077       0.09439872       0.08377069 </v>
   <v>       0.01124789      -0.01041644      -0.00005538 </v>
  </varray>
  <varray name="stress" >
   <v>       0.75237875      -2.88202897       0.89293135 </v>
   <v>      -2.88200907       0.17325239       0.24815719 </v>
   <v>       0.89317425       0.24805523      -4.32670734 </v>
  </varray>
  <energy>
   <i name="e_fr_energy">   -148.32872650 </i>
   <i name="e_wo_entrp">   -148.32872650 </i>
   <i name="e_0_energy">   -148.32872650 </i>
  </energy>
  <time name="totalsc">   30.36   30.42</time>
 </calculation>
 <calculation>
  <scstep>
   <time name="total">    2.78    2.78</time>
   <energy>
    <i name="alphaZ">     27.96370245 </i>
    <i name="ewald">  -1125.19246337 </i>
    <i name="hartreedc">   -601.35492396 </i>
    <i name="XCdc">    -35.84453833 </i>
    <i name="pawpsdc">   3237.56342324 </i>
    <i name="pawaedc">  -3162.49849045 </i>
    <i name="eentropy">     -0.00000000 </i>
    <i name="bandstr">   -269.33042132 </i>
    <i name="atom">   1780.36699914 </i>
    <i name="e_fr_energy">   -148.32671261 </i>
    <i name="e_wo_entrp">   -148.32671261 </i>
    <i name="e_0_energy">   -148.32671261 </i>
   </energy>
  </scstep>
  <scstep>
   <time name="total">    2.79    2.79</time>
   <energy>
    <i name="e_fr_energy">   -148.32987811 </i>
    <i name="e_wo_entrp">   -148.32987811 </i>
    <i name="e_0_energy">   -148.32987811 </i>
   </energy>
  </scstep>
  <scstep>
   <time name="total">    2.78    2.78</time>
   <energy>
    <i name="e_fr_energy">   -148.33050213 </i>
    <i name="e_wo_entrp">   -148.33050213 </i>
    <i name="e_0_energy">   -148.33050213 </i>
   </energy>
  </scstep>
  <scstep>
   <time name="total">    2.78    2.78</time>
   <energy>
    <i name="e_fr_energy">   -148.33060949 </i>
    <i name="e_wo_entrp">   -148.33060949 </i>
    <i name="e_0_energy">   -148.33060949 </i>
   </energy>
  </scstep>
  <scstep>
   <time name="total">    2.77    2.78</time>
   <energy>
    <i name="e_fr_energy">   -148.33063391 </i>
    <i name="e_wo_entrp">   -148.33063391 </i>
    <i name="e_0_energy">   -148.33063391 </i>
   </energy>
  </scstep>
  <scstep>
   <time name="total">    2.77    2.78</time>
   <energy>
    <i name="e_fr_energy">   -148.33064160 </i>
    <i name="e_wo_entrp">   -148.33064160 </i>
    <i name="e_0_energy">   -148.33064160 </i>
   </energy>
  </scstep>
  <scstep>
   <time name="total">    2.78    2.78</time>
   <energy>
    <i name="e_fr_energy">   -148.33064409 </i>
    <i name="e_wo_entrp">   -148.33064409 </i>
    <i name="e_0_energy">   -148.33064409 </i>
   </energy>
  </scstep>
  <scstep>
   <time name="total">    3.10    3.11</time>
   <energy>
    <i name="alphaZ">     27.96370245 </i>
    <i name="ewald">  -1125.19246337 </i>
    <i name="hartreedc">   -601.57115799 </i>
    <i name="XCdc">    -35.83928086 </i>
    <i name="pawpsdc">   3234.50279492 </i>
    <i name="pawaedc">  -3159.43959292 </i>
    <i name="eentropy">     -0.00000000 </i>
    <i name="bandstr">   -269.12164618 </i>
    <i name="atom">   1780.36699914 </i>
    <i name="e_fr_energy">   -148.33064480 </i>
    <i name="e_wo_entrp">   -148.33064480 </i>
    <i name="e_0_energy">   -148.33064480 </i>
   </energy>
  </scstep>
  <structure>
   <crystal>
    <varray name="basis" >
     <v>       6.37227928       0.00302822       0.06856618 </v>
     <v>       0.00303002       6.37663016       0.07688084 </v>
     <v>       0.06872770       0.07704465       6.35726575 </v>
    </varray>
    <i name="volume">    258.25120728 </i>
    <varray name="rec_basis" >
     <v>       0.15694800      -0.00005413      -0.00169609 </v>
     <v>      -0.00005409       0.15684558      -0.00190025 </v>
     <v>      -0.00169211      -0.00189621       0.15734160 </v>
    </varray>
   </crystal>
   <varray name="positions" >
    <v>       0.94755925       0.05319528       0.99850293 </v>
    <v>       0.06690033       0.81330346       0.82525583 </v>
    <v>       0.18605680       0.93690747       0.17608734 </v>
    <v>       0.05333386       0.14697630       0.27888010 </v>
    <v>       0.85734520       0.94378746       0.71838993 </v>
    <v>       0.82690364       0.17358809       0.99706267 </v>
    <v>       0.00029854       0.49584693       0.49691282 </v>
    <v>       0.50431377      -0.00041098       0.50307852 </v>
    <v>       0.49497936       0.50507957      -0.00005720 </v>
    <v>       0.06766692       0.04126073       0.16246549 </v>
    <v>       0.96198349       0.93133658       0.83626026 </v>
    <v>       0.50043438       0.49957060       0.49998469 </v>
   </varray>
  </structure>
  <varray name="forces" >
   <v>      -0.02435390       0.01890428      -0.02106355 </v>
   <v>       0.17231827      -0.11668114       0.08566300 </v>
   <v>       0.11654376      -0.15526136      -0.06229357 </v>
   <v>      -0.11150345       0.07734187      -0.08287544 </v>
   <v>      -0.08520838       0.12177261       0.08183383 </v>
   <v>      -0.05260142       0.03671052      -0.01290909 </v>
   <v>       0.00103514      -0.03795755      -0.02311501 </v>
   <v>       0.04061955      -0.00211810       0.02199688 </v>
[...]
       <r>   -9.1271    1.0000 </r>
       <r>   -7.3832    1.0000 </r>
       <r>   -6.1545    1.0000 </r>
       <r>   -5.8199    1.0000 </r>
       <r>   -5.2684    1.0000 </r>
       <r>   -1.8905    1.0000 </r>
       <r>   -1.7559    1.0000 </r>
       <r>   -1.4679    1.0000 </r>
       <r>   -1.2283    1.0000 </r>
       <r>   -1.1261    1.0000 </r>
       <r>   -0.9548    1.0000 </r>
       <r>   -0.3458    1.0000 </r>
       <r>   -0.1631    1.0000 </r>
       <r>    0.0213    1.0000 </r>
       <r>    0.9938    1.0000 </r>
       <r>    2.8596    0.0000 </r>
       <r>    3.0789    0.0000 </r>
       <r>    4.1413    0.0000 </r>
       <r>    4.4209    0.0000 </r>
       <r>    6.2233    0.0000 </r>
       <r>    6.9095    0.0000 </r>
       <r>    7.3322    0.0000 </r>
       <r>    7.5569    0.0000 </r>
       <r>    7.9731    0.0000 </r>
       <r>    8.1298    0.0000 </r>
      </set>
      <set comment="kpoint 35">
       <r>  -20.8179    1.0000 </r>
       <r>  -18.4397    1.0000 </r>
       <r>  -11.9938    1.0000 </r>
       <r>  -11.3520    1.0000 </r>
       <r>  -11.2542    1.0000 </r>
       <r>  -11.1531    1.0000 </r>
       <r>   -9.8760    1.0000 </r>
       <r>   -9.1263    1.0000 </r>
       <r>   -7.3811    1.0000 </r>
       <r>   -6.1530    1.0000 </r>
       <r>   -5.8169    1.0000 </r>
       <r>   -5.2666    1.0000 </r>
       <r>   -1.8800    1.0000 </r>
       <r>   -1.7923    1.0000 </r>
       <r>   -1.4251    1.0000 </r>
       <r>   -1.2497    1.0000 </r>
       <r>   -1.1260    1.0000 </r>
       <r>   -0.8808    1.0000 </r>
       <r>   -0.3614    1.0000 </r>
       <r>   -0.2190    1.0000 </r>
       <r>    0.0039    1.0000 </r>
       <r>    0.9815    1.0000 </r>
       <r>    2.8939    0.0000 </r>
       <r>    3.0453    0.0000 </r>
       <r>    4.1308    0.0000 </r>
       <r>    4.4532    0.0000 </r>
       <r>    6.2338    0.0000 </r>
       <r>    6.9275    0.0000 </r>
       <r>    7.2785    0.0000 </r>
       <r>    7.6097    0.0000 </r>
       <r>    7.9444    0.0000 </r>
       <r>    8.2054    0.0000 </r>
      </set>
      <set comment="kpoint 36">
       <r>  -20.8178    1.0000 </r>
       <r>  -18.4398    1.0000 </r>
       <r>  -11.9924    1.0000 </r>
       <r>  -11.3402    1.0000 </r>
       <r>  -11.2404    1.0000 </r>
       <r>  -11.1630    1.0000 </r>
       <r>   -9.8748    1.0000 </r>
       <r>   -9.1257    1.0000 </r>
       <r>   -7.3982    1.0000 </r>
       <r>   -6.3666    1.0000 </r>
       <r>   -5.7932    1.0000 </r>
       <r>   -5.2799    1.0000 </r>
       <r>   -1.8422    1.0000 </r>
       <r>   -1.4770    1.0000 </r>
       <r>   -1.4062    1.0000 </r>
       <r>   -1.2251    1.0000 </r>
       <r>   -1.0554    1.0000 </r>
       <r>   -0.8934    1.0000 </r>
       <r>   -0.2560    1.0000 </r>
       <r>    0.0318    1.0000 </r>
       <r>    0.0558    1.0000 </r>
       <r>    1.3844    1.0000 </r>
       <r>    2.6986    0.0000 </r>
       <r>    2.8447    0.0000 </r>
       <r>    2.9362    0.0000 </r>
       <r>    4.2415    0.0000 </r>
       <r>    6.0181    0.0000 </r>
       <r>    7.3154    0.0000 </r>
       <r>    7.4769    0.0000 </r>
       <r>    7.6344    0.0000 </r>
       <r>    7.7732    0.0000 </r>
       <r>    8.0011    0.0000 </r>
      </set>
     </set>
    </set>
   </array>
  </eigenvalues>
  <separator name="orbital magnetization" >
   <v name="MAGDIPOLOUT">      0.00000000      0.00000000      0.00000000</v>
  </separator>
  <dos>
   <i name="efermi">      1.68394831 </i>
   <total>
    <array>
     <dimension dim="1">gridpoints</dimension>
     <dimension dim="2">spin</dimension>
     <field>energy</field>
     <field>total</field>
     <field>integrated</field>
     <set>
      <set comment="spin 1">
       <r>   -22.2779     0.0000     0.0000 </r>
       <r>   -22.1710     0.0000     0.0000 </r>
       <r>   -22.0640     0.0000     0.0000 </r>
       <r>   -21.9571     0.0000     0.0000 </r>
       <r>   -21.8501     0.0000     0.0000 </r>
       <r>   -21.7432     0.0000     0.0000 </r>
       <r>   -21.6363     0.0000     0.0000 </r>
       <r>   -21.5293     0.0000     0.0000 </r>
       <r>   -21.4224     0.0000     0.0000 </r>
       <r>   -21.3154     0.0000     0.0000 </r>
       <r>   -21.2085     0.0000     0.0000 </r>
       <r>   -21.1015     0.0000     0.0000 </r>
       <r>   -20.9946     0.0000     0.0000 </r>
       <r>   -20.8877     0.4757     0.0509 </r>
       <r>   -20.7807    15.5730     1.7163 </r>
       <r>   -20.6738     2.6525     2.0000 </r>
       <r>   -20.5668     0.0004     2.0000 </r>
       <r>   -20.4599     0.0000     2.0000 </r>
       <r>   -20.3529     0.0000     2.0000 </r>
       <r>   -20.2460     0.0000     2.0000 </r>
       <r>   -20.1391     0.0000     2.0000 </r>
       <r>   -20.0321     0.0000     2.0000 </r>
       <r>   -19.9252     0.0000     2.0000 </r>
       <r>   -19.8182     0.0000     2.0000 </r>
       <r>   -19.7113     0.0000     2.0000 </r>
       <r>   -19.6043     0.0000     2.0000 </r>
       <r>   -19.4974     0.0000     2.0000 </r>
       <r>   -19.3905     0.0000     2.0000 </r>
       <r>   -19.2835     0.0000     2.0000 </r>
       <r>   -19.1766     0.0000     2.0000 </r>
       <r>   -19.0696     0.0000     2.0000 </r>
       <r>   -18.9627     0.0000     2.0000 </r>
       <r>   -18.8557     0.0000     2.0000 </r>
       <r>   -18.7488     0.0000     2.0000 </r>
       <r>   -18.6419     0.0000     2.0000 </r>
       <r>   -18.5349     0.0602     2.0064 </r>
       <r>   -18.4280    11.4926     3.2355 </r>
       <r>   -18.3210     7.1405     3.9991 </r>
       <r>   -18.2141     0.0083     4.0000 </r>
       <r>   -18.1071     0.0000     4.0000 </r>
       <r>   -18.0002     0.0000     4.0000 </r>
       <r>   -17.8933     0.0000     4.0000 </r>
       <r>   -17.7863     0.0000     4.0000 </r>
       <r>   -17.6794     0.0000     4.0000 </r>
       <r>   -17.5724     0.0000     4.0000 </r>
       <r>   -17.4655     0.0000     4.0000 </r>
       <r>   -17.3585     0.0000     4.0000 </r>
       <r>   -17.2516     0.0000     4.0000 </r>
       <r>   -17.1447     0.0000     4.0000 </r>
       <r>   -17.0377     0.0000     4.0000 </r>
       <r>   -16.9308     0.0000     4.0000 </r>
       <r>   -16.8238     0.0000     4.0000 </r>
       <r>   -16.7169     0.0000     4.0000 </r>
       <r>   -16.6099     0.0000     4.0000 </r>
       <r>   -16.5030     0.0000     4.0000 </r>
       <r>   -16.3961     0.0000     4.0000 </r>
       <r>   -16.2891     0.0000     4.0000 </r>
       <r>   -16.1822     0.0000     4.0000 </r>
       <r>   -16.0752     0.0000     4.0000 </r>
       <r>   -15.9683     0.0000     4.0000 </r>
       <r>   -15.8613     0.0000     4.0000 </r>
       <r>   -15.7544     0.0000     4.0000 </r>
       <r>   -15.6475     0.0000     4.0000 </r>
       <r>   -15.5405     0.0000     4.0000 </r>
       <r>   -15.4336     0.0000     4.0000 </r>
       <r>   -15.3266     0.0000     4.0000 </r>
       <r>   -15.2197     0.0000     4.0000 </r>
       <r>   -15.1128     0.0000     4.0000 </r>
       <r>   -15.0058     0.0000     4.0000 </r>
       <r>   -14.8989     0.0000     4.0000 </r>
       <r>   -14.7919     0.0000     4.0000 </r>
       <r>   -14.6850     0.0000     4.0000 </r>
       <r>   -14.5780     0.0000     4.0000 </r>
       <r>   -14.4711     0.0000     4.0000 </r>
       <r>   -14.3642     0.0000     4.0000 </r>
       <r>   -14.2572     0.0000     4.0000 </r>
       <r>   -14.1503     0.0000     4.0000 </r>
       <r>   -14.0433     0.0000     4.0000 </r>
       <r>   -13.9364     0.0000     4.0000 </r>
       <r>   -13.8294     0.0000     4.0000 </r>
       <r>   -13.7225     0.0000     4.0000 </r>
       <r>   -13.6156     0.0000     4.0000 </r>
       <r>   -13.5086     0.0000     4.0000 </r>
       <r>   -13.4017     0.0000     4.0000 </r>
       <r>   -13.2947     0.0000     4.0000 </r>
       <r>   -13.1878     0.0000     4.0000 </r>
       <r>   -13.0808     0.0000     4.0000 </r>
       <r>   -12.9739     0.0000     4.0000 </r>
       <r>   -12.8670     0.0000     4.0000 </r>
       <r>   -12.7600     0.0000     4.0000 </r>
       <r>   -12.6531     0.0000     4.0000 </r>
       <r>   -12.5461     0.0000     4.0000 </r>
       <r>   -12.4392     0.0000     4.0000 </r>
       <r>   -12.3322     0.0000     4.0000 </r>
       <r>   -12.2253     0.0000     4.0000 </r>
       <r>   -12.1184     0.0080     4.0009 </r>
       <r>   -12.0114     5.8823     4.6299 </r>
       <r>   -11.9045    12.6586     5.9837 </r>
       <r>   -11.7975     0.1527     6.0000 </r>
       <r>   -11.6906     0.0106     6.0011 </r>
       <r>   -11.5836     2.0120     6.2163 </r>
       <r>   -11.4767     8.4768     7.1228 </r>
       <r>   -11.3698     6.5970     7.8283 </r>
       <r>   -11.2628     3.0835     8.1581 </r>
       <r>   -11.1559    15.0005     9.7623 </r>
       <r>   -11.0489    18.3043    11.7198 </r>
       <r>   -10.9420     2.6165    11.9996 </r>
       <r>   -10.8350     0.0036    12.0000 </r>
       <r>   -10.7281     0.0000    12.0000 </r>
       <r>   -10.6212     0.0000    12.0000 </r>
       <r>   -10.5142     0.0000    12.0000 </r>
       <r>   -10.4073     0.0000    12.0000 </r>
       <r>   -10.3003     0.0000    12.0000 </r>
       <r>   -10.1934     0.0000    12.0000 </r>
       <r>   -10.0864     0.0000    12.0000 </r>
       <r>    -9.9795     0.0675    12.0072 </r>
       <r>    -9.8726    11.1948    13.2044 </r>
       <r>    -9.7656     7.4278    13.9988 </r>
       <r>    -9.6587     0.0115    14.0000 </r>
       <r>    -9.5517     0.0000    14.0000 </r>
       <r>    -9.4448     0.0000    14.0000 </r>
       <r>    -9.3378     0.0000    14.0000 </r>
       <r>    -9.2309     0.0348    14.0037 </r>
       <r>    -9.1240    10.2105    15.0957 </r>
       <r>    -9.0170     8.4406    15.9983 </r>
       <r>    -8.9101     0.0157    16.0000 </r>
       <r>    -8.8031     0.0000    16.0000 </r>
       <r>    -8.6962     0.0000    16.0000 </r>
       <r>    -8.5892     0.0000    16.0000 </r>
       <r>    -8.4823     0.0000    16.0000 </r>
       <r>    -8.3754     0.0000    16.0000 </r>
       <r>    -8.2684     0.0000    16.0000 </r>
       <r>    -8.1615     0.0000    16.0000 </r>
       <r>    -8.0545     0.0000    16.0000 </r>
       <r>    -7.9476     0.0000    16.0000 </r>
       <r>    -7.8406     0.0000    16.0000 </r>
       <r>    -7.7337     0.0000    16.0000 </r>
       <r>    -7.6268     0.0000    16.0000 </r>
       <r>    -7.5198     0.0003    16.0000 </r>
       <r>    -7.4129     1.8753    16.2006 </r>
       <r>    -7.3059    15.8318    17.8937 </r>
       <r>    -7.1990     0.9941    18.0000 </r>
       <r>    -7.0920     0.0001    18.0000 </r>
       <r>    -6.9851     0.0000    18.0000 </r>
       <r>    -6.8782     0.0000    18.0000 </r>
       <r>    -6.7712     0.0000    18.0000 </r>
       <r>    -6.6643     0.0000    18.0000 </r>
       <r>    -6.5573     0.0000    18.0000 </r>
       <r>    -6.4504     0.0026    18.0003 </r>
       <r>    -6.3434     0.2148    18.0232 </r>
       <r>    -6.2365     0.0894    18.0328 </r>
       <r>    -6.1296     1.2685    18.1685 </r>
       <r>    -6.0226     0.5425    18.2265 </r>
       <r>    -5.9157     3.0849    18.5564 </r>
       <r>    -5.8087    13.8063    20.0329 </r>
       <r>    -5.7018     7.2351    20.8066 </r>
       <r>    -5.5948     4.3915    21.2762 </r>
       <r>    -5.4879     0.5406    21.3340 </r>
       <r>    -5.3810     3.1111    21.6668 </r>
       <r>    -5.2740     5.6049    22.2662 </r>
       <r>    -5.1671    14.2412    23.7891 </r>
       <r>    -5.0601     1.6331    23.9638 </r>
       <r>    -4.9532     0.0464    23.9688 </r>
       <r>    -4.8462     0.0722    23.9765 </r>
       <r>    -4.7393     0.2172    23.9997 </r>
       <r>    -4.6324     0.0028    24.0000 </r>
       <r>    -4.5254     0.0000    24.0000 </r>
       <r>    -4.4185     0.0000    24.0000 </r>
       <r>    -4.3115     0.0000    24.0000 </r>
       <r>    -4.2046     0.0000    24.0000 </r>
       <r>    -4.0976     0.0000    24.0000 </r>
       <r>    -3.9907     0.0000    24.0000 </r>
       <r>    -3.8838     0.0000    24.0000 </r>
       <r>    -3.7768     0.0000    24.0000 </r>
       <r>    -3.6699     0.0000    24.0000 </r>
       <r>    -3.5629     0.0000    24.0000 </r>
       <r>    -3.4560     0.0000    24.0000 </r>
       <r>    -3.3490     0.0000    24.0000 </r>
       <r>    -3.2421     0.0000    24.0000 </r>
       <r>    -3.1352     0.0000    24.0000 </r>
       <r>    -3.0282     0.0000    24.0000 </r>
       <r>    -2.9213     0.0000    24.0000 </r>
       <r>    -2.8143     0.0238    24.0026 </r>
       <r>    -2.7074     0.4852    24.0544 </r>
       <r>    -2.6004     1.7735    24.2441 </r>
       <r>    -2.4935     6.1505    24.9019 </r>
       <r>    -2.3866     4.7700    25.4120 </r>
       <r>    -2.2796     0.5561    25.4714 </r>
       <r>    -2.1727     1.3941    25.6205 </r>
       <r>    -2.0657     2.4463    25.8821 </r>
       <r>    -1.9588     8.1137    26.7499 </r>
       <r>    -1.8518    15.6673    28.4254 </r>
       <r>    -1.7449     6.8128    29.1539 </r>
       <r>    -1.6380     3.7745    29.5576 </r>
       <r>    -1.5310     2.8803    29.8656 </r>
       <r>    -1.4241     2.8470    30.1701 </r>
       <r>    -1.3171     5.8997    30.8010 </r>
       <r>    -1.2102     6.2828    31.4729 </r>
       <r>    -1.1032     7.6364    32.2896 </r>
       <r>    -0.9963     4.7814    32.8009 </r>
       <r>    -0.8894     8.2428    33.6824 </r>
       <r>    -0.7824    11.1168    34.8713 </r>
       <r>    -0.6755     7.8490    35.7107 </r>
       <r>    -0.5685    11.1838    36.9067 </r>
       <r>    -0.4616     9.9861    37.9746 </r>
       <r>    -0.3546    11.9102    39.2483 </r>
       <r>    -0.2477     9.9164    40.3088 </r>
       <r>    -0.1408    11.1229    41.4983 </r>
       <r>    -0.0338     5.9023    42.1296 </r>
       <r>     0.0731     4.8673    42.6501 </r>
       <r>     0.1801     1.9851    42.8624 </r>
       <r>     0.2870     1.7941    43.0542 </r>
       <r>     0.3940     1.8464    43.2517 </r>
       <r>     0.5009     2.4558    43.5143 </r>
       <r>     0.6078     1.1379    43.6360 </r>
       <r>     0.7148     0.7759    43.7190 </r>
       <r>     0.8217     0.5582    43.7787 </r>
       <r>     0.9287     0.6523    43.8484 </r>
       <r>     1.0356     1.0189    43.9574 </r>
       <r>     1.1426     0.1061    43.9687 </r>
       <r>     1.2495     0.0000    43.9688 </r>
       <r>     1.3564     0.0626    43.9754 </r>
       <r>     1.4634     0.2259    43.9996 </r>
       <r>     1.5703     0.0037    44.0000 </r>
       <r>     1.6773     0.0000    44.0000 </r>
       <r>     1.7842     0.0000    44.0000 </r>
       <r>     1.8911     0.0000    44.0000 </r>
       <r>     1.9981     0.0000    44.0000 </r>
       <r>     2.1050     0.0000    44.0000 </r>
       <r>     2.2120     0.0000    44.0000 </r>
       <r>     2.3189     0.0000    44.0000 </r>
       <r>     2.4259     0.0000    44.0000 </r>
       <r>     2.5328     0.0000    44.0000 </r>
       <r>     2.6397     0.0140    44.0015 </r>
       <r>     2.7467     0.2540    44.0287 </r>
       <r>     2.8536     0.5315    44.0855 </r>
       <r>     2.9606     1.5487    44.2511 </r>
       <r>     3.0675     2.6438    44.5339 </r>
       <r>     3.1745     3.7274    44.9325 </r>
       <r>     3.2814     3.1655    45.2710 </r>
       <r>     3.3883     1.6463    45.4471 </r>
       <r>     3.4953     0.4691    45.4972 </r>
       <r>     3.6022     0.0259    45.5000 </r>
       <r>     3.7092     0.0000    45.5000 </r>
       <r>     3.8161     0.0000    45.5000 </r>
       <r>     3.9231     0.0005    45.5000 </r>
       <r>     4.0300     0.3984    45.5427 </r>
       <r>     4.1369     5.4657    46.1272 </r>
       <r>     4.2439    10.4658    47.2464 </r>
       <r>     4.3508     5.3060    47.8139 </r>
       <r>     4.4578     5.5566    48.4081 </r>
       <r>     4.5647     5.3979    48.9854 </r>
       <r>     4.6717     5.6755    49.5923 </r>
       <r>     4.7786     4.9792    50.1248 </r>
       <r>     4.8855     1.8002    50.3173 </r>
       <r>     4.9925     1.4753    50.4751 </r>
       <r>     5.0994     0.2332    50.5000 </r>
       <r>     5.2064     0.1585    50.5170 </r>
       <r>     5.3133     0.3691    50.5565 </r>
       <r>     5.4203     0.6976    50.6311 </r>
       <r>     5.5272     1.4920    50.7906 </r>
       <r>     5.6341     2.7687    51.0867 </r>
       <r>     5.7411     3.3122    51.4409 </r>
       <r>     5.8480     4.1413    51.8838 </r>
       <r>     5.9550     2.5819    52.1599 </r>
       <r>     6.0619     3.2066    52.5028 </r>
       <r>     6.1689     5.4548    53.0862 </r>
       <r>     6.2758     3.7041    53.4823 </r>
       <r>     6.3827     2.0469    53.7012 </r>
       <r>     6.4897     3.0365    54.0260 </r>
       <r>     6.5966     5.6547    54.6307 </r>
       <r>     6.7036     7.2343    55.4044 </r>
       <r>     6.8105     7.4822    56.2045 </r>
       <r>     6.9175     6.3352    56.8820 </r>
       <r>     7.0244     5.9856    57.5221 </r>
       <r>     7.1313     2.2642    57.7643 </r>
       <r>     7.2383     6.4567    58.4548 </r>
       <r>     7.3452     5.7242    59.0669 </r>
       <r>     7.4522     5.9966    59.7082 </r>
       <r>     7.5591     7.7311    60.5350 </r>
       <r>     7.6661     8.1887    61.4107 </r>
       <r>     7.7730     4.6462    61.9076 </r>
       <r>     7.8799     4.3397    62.3717 </r>
       <r>     7.9869     5.1924    62.9270 </r>
       <r>     8.0938     5.5383    63.5193 </r>
       <r>     8.2008     3.2142    63.8630 </r>
       <r>     8.3077     0.7741    63.9458 </r>
       <r>     8.4147     0.4909    63.9983 </r>
       <r>     8.5216     0.0159    64.0000 </r>
       <r>     8.6285     0.0000    64.0000 </r>
       <r>     8.7355     0.0000    64.0000 </r>
       <r>     8.8424     0.0000    64.0000 </r>
       <r>     8.9494     0.0000    64.0000 </r>
       <r>     9.0563     0.0000    64.0000 </r>
       <r>     9.1633     0.0000    64.0000 </r>
       <r>     9.2702     0.0000    64.0000 </r>
       <r>     9.3771     0.0000    64.0000 </r>
       <r>     9.4841     0.0000    64.0000 </r>
       <r>     9.5910     0.0000    64.0000 </r>
       <r>     9.6980     0.0000    64.0000 </r>
       <r>     9.8049     0.0000    64.0000 </r>
      </set>
     </set>
    </array>
   </total>
  </dos>
 </calculation>
 <structure name="finalpos" >
  <crystal>
   <varray name="basis" >
    <v>       6.45135815       0.29259796       0.15722522 </v>
    <v>       0.29136228       6.44847225       0.27529290 </v>
    <v>       0.16577075       0.28556314       6.38355699 </v>
   </varray>
   <i name="volume">    264.37192409 </i>
   <varray name="rec_basis" >
    <v>       0.15540824      -0.00686265      -0.00372871 </v>
    <v>      -0.00689528       0.15567670      -0.00678501 </v>
    <v>      -0.00353030      -0.00654458       0.15703692 </v>
   </varray>
  </crystal>
  <varray name="positions" >
   <v>       0.95258296       0.04500011       0.99515785 </v>
   <v>       0.06973148       0.78044407       0.86487761 </v>
   <v>       0.22231460       0.95215520       0.14061976 </v>
   <v>       0.08215604       0.17433388       0.22677689 </v>
   <v>       0.83849839       0.90077280       0.76519502 </v>
   <v>       0.82285368       0.16460543       0.99033633 </v>
   <v>      -0.04468970       0.48473113       0.48550804 </v>
   <v>       0.50807495       0.03612804       0.51960897 </v>
   <v>       0.46760665       0.55198817       0.02269962 </v>
   <v>       0.09647553       0.05787150       0.12887816 </v>
   <v>       0.95452578       0.89799873       0.86679163 </v>
   <v>       0.49764520       0.49441243       0.48637349 </v>
  </varray>
 </structure>
</modeling>
