cubic-FASnI3                            
           1
     6.307400    0.000000    0.000000
     0.000000    6.307400    0.000000
     0.000000    0.000000    6.307400
   C    H    I    N    Sn
     1     5     3     2     1
Direct configuration=     1
   0.94669275  0.05432168  0.99842978
   0.06899692  0.81080160  0.82473053
   0.18854240  0.93491789  0.17668345
   0.05352491  0.14954103  0.28319952
   0.85466838  0.94334886  0.71435899
   0.82452590  0.17605697  0.99682624
   0.00000000  0.50000000  0.50000000
   0.50000000  0.00000000  0.50000000
   0.50000000  0.50000000  0.00000000
   0.06873622  0.04122229  0.16503332
   0.96208809  0.93023118  0.83356153
   0.50000000  0.50000000  0.50000000
cubic-FASnI3                            
           1
     6.328308   -0.002822    0.016666
    -0.002822    6.329851    0.018913
     0.016667    0.018913    6.333280
   C    H    I    N    Sn
     1     5     3     2     1
Direct configuration=     2
   0.94666783  0.05431294  0.99849489
   0.06901699  0.81074892  0.82470516
   0.18850852  0.93493643  0.17666691
   0.05353955  0.14958782  0.28320490
   0.85471046  0.94333876  0.71433696
   0.82453315  0.17605232  0.99687912
   0.00004520  0.49925685  0.49943511
   0.50077114 -0.00006531  0.50056490
   0.49912362  0.50088696 -0.00000922
   0.06874946  0.04117667  0.16497885
   0.96203737  0.93028135  0.83356893
   0.50007227  0.49992780  0.49999685
cubic-FASnI3                            
           1
     6.329237   -0.002948    0.017407
    -0.002948    6.330849    0.019754
     0.017408    0.019754    6.334431
   C    H    I    N    Sn
     1     5     3     2     1
Direct configuration=     3
   0.94666672  0.05431255  0.99849778
   0.06901788  0.81074659  0.82470404
   0.18850703  0.93493726  0.17666618
   0.05354020  0.14958990  0.28320513
   0.85471232  0.94333832  0.71433598
   0.82453347  0.17605211  0.99688146
   0.00004726  0.49922400  0.49941019
   0.50080524 -0.00006827  0.50058983
   0.49908481  0.50092623 -0.00000964
   0.06875005  0.04117465  0.16497644
   0.96203512  0.93028357  0.83356926
   0.50007547  0.49992460  0.49999671
cubic-FASnI3                            
           1
     6.337554   -0.002084    0.026194
    -0.002083    6.339502    0.029350
     0.026217    0.029373    6.339746
   C    H    I    N    Sn
     1     5     3     2     1
Direct configuration=     4
   0.94709366  0.05379192  0.99842831
   0.06866911  0.81113615  0.82475426
   0.18817167  0.93521558  0.17659793
   0.05357298  0.14912900  0.28256241
   0.85512504  0.94334979  0.71487415
   0.82481502  0.17576653  0.99692277
   0.00008731  0.49866236  0.49899186
   0.50138542 -0.00012302  0.50100488
   0.49841859  0.50159995 -0.00001724
   0.06834403  0.04137282  0.16452049
   0.96196078  0.93067180  0.83418888
   0.50013195  0.49986862  0.49999466
cubic-FASnI3                            
           1
     6.349378   -0.000855    0.038686
    -0.000852    6.351804    0.042995
     0.038742    0.043049    6.347304
   C    H    I    N    Sn
     1     5     3     2     1
Direct configuration=     5
   0.94770011  0.05305280  0.99832990
   0.06817372  0.81168920  0.82482544
   0.18769557  0.93561097  0.17650104
   0.05362089  0.14847600  0.28165031
   0.85570999  0.94336484  0.71563784
   0.82521478  0.17536092  0.99698152
   0.00014511  0.49786583  0.49839871
   0.50220840 -0.00020177  0.50159345
   0.49747251  0.50255666 -0.00002817
   0.06776840  0.04165523  0.16387316
   0.96185393  0.93122169  0.83506841
   0.50021215  0.49978913  0.49999175
cubic-FASnI3                            
           1
     6.352462   -0.000113    0.042722
    -0.000111    6.355195    0.047628
     0.042791    0.047696    6.348983
   C    H    I    N    Sn
     1     5     3     2     1
Direct configuration=     6
   0.94769102  0.05306594  0.99836147
   0.06796853  0.81193482  0.82487384
   0.18745284  0.93581136  0.17645194
   0.05359761  0.14825936  0.28128240
   0.85594365  0.94340600  0.71600090
   0.82545019  0.17511631  0.99699463
   0.00016595  0.49759419  0.49819817
   0.50249152 -0.00023012  0.50179406
   0.49714098  0.50289219 -0.00003210
   0.06775115  0.04160605  0.16368657
   0.96188099  0.93122485  0.83522069
   0.50024112  0.49976055  0.49999079
cubic-FASnI3                            
           1
     6.361716    0.002113    0.054830
     0.002114    6.365368    0.061527
     0.054939    0.061635    6.354022
   C    H    I    N    Sn
     1     5     3     2     1
Direct configuration=     7
   0.94766370  0.05310526  0.99845616
   0.06735309  0.81267123  0.82501885
   0.18672501  0.93641243  0.17630472
   0.05352859  0.14761061  0.28017945
   0.85664359  0.94352853  0.71708927
   0.82615615  0.17438278  0.99703404
   0.00022893  0.49678012  0.49759725
   0.50334008 -0.00031566  0.50239525
   0.49614675  0.50389836 -0.00004398
   0.06769982  0.04145898  0.16312708
   0.96196183  0.93123400  0.83567736
   0.50032802  0.49967485  0.49998791
cubic-FASnI3                            
           1
     6.380223    0.006566    0.079046
     0.006563    6.385714    0.089325
     0.079233    0.089513    6.364099
   C    H    I    N    Sn
     1     5     3     2     1
Direct configuration=     8
   0.94760874  0.05318340  0.99864531
   0.06612295  0.81414150  0.82530780
   0.18527162  0.93761380  0.17601064
   0.05339537  0.14632000  0.27797829
   0.85803723  0.94376800  0.71926120
   0.82756637  0.17291739  0.99711331
   0.00035751  0.49515714  0.49639962
   0.50503254 -0.00048967  0.50359389
   0.49416053  0.50590826 -0.00006833
   0.06759953  0.04116780  0.16200978
   0.96212152  0.93125022  0.83658967
   0.50050164  0.49950367  0.49998220
cubic-FASnI3                            
           1
     6.370129    0.004137    0.065838
     0.004136    6.374617    0.074163
     0.065982    0.074308    6.358602
   C    H    I    N    Sn
     1     5     3     2     1
Direct configuration=     9
   0.94763905  0.05314135  0.99854236
   0.06679310  0.81334233  0.82515137
   0.18606189  0.93695938  0.17617065
   0.05346283  0.14701647  0.27917378
   0.85728383  0.94364342  0.71808174
   0.82679904  0.17371484  0.99706958
   0.00028454  0.49603680  0.49704832
   0.50411447 -0.00039163  0.50294414
   0.49524143  0.50481468 -0.00005441
   0.06765167  0.04132344  0.16261739
   0.96203656  0.93124362  0.83609317
   0.50040714  0.49959679  0.49998526
cubic-FASnI3                            
           1
     6.372279    0.003028    0.068566
     0.003030    6.376630    0.076881
     0.068728    0.077045    6.357266
   C    H    I    N    Sn
     1     5     3     2     1
Direct configuration=    10
   0.94755925  0.05319528  0.99850293
   0.06690033  0.81330346  0.82525583
   0.18605680  0.93690747  0.17608734
   0.05333386  0.14697630  0.27888010
   0.85734520  0.94378746  0.71838993
   0.82690364  0.17358809  0.99706267
   0.00029854  0.49584693  0.49691282
   0.50431377 -0.00041098  0.50307852
   0.49497936  0.50507957 -0.00005720
   0.06766692  0.04126073  0.16246549
   0.96198349  0.93133658  0.83626026
   0.50043438  0.49957060  0.49998469
cubic-FASnI3                            
           1
     6.378730   -0.000299    0.076752
    -0.000289    6.382670    0.085035
     0.076963    0.085256    6.353256
   C    H    I    N    Sn
     1     5     3     2     1
Direct configuration=    11
   0.94732003  0.05335706  0.99838462
   0.06722177  0.81318680  0.82556918
   0.18604161  0.93675189  0.17583743
   0.05294742  0.14685614  0.27799908
   0.85752892  0.94421907  0.71931444
   0.82721726  0.17320802  0.99704196
   0.00034062  0.49527766  0.49650645
   0.50491128 -0.00046909  0.50348152
   0.49419357  0.50587387 -0.00006558
   0.06771282  0.04107287  0.16200975
   0.96182419  0.93161515  0.83676158
   0.50051607  0.49949208  0.49998295
cubic-FASnI3                            
           1
     6.391632   -0.006954    0.093123
    -0.006926    6.394751    0.101344
     0.093435    0.101678    6.345237
   C    H    I    N    Sn
     1     5     3     2     1
Direct configuration=    12
   0.94684255  0.05368035  0.99814806
   0.06786305  0.81295322  0.82619577
   0.18601174  0.93644164  0.17533771
   0.05217747  0.14661790  0.27623717
   0.85789405  0.94507929  0.72116310
   0.82784354  0.17244897  0.99700069
   0.00042513  0.49414129  0.49569450
   0.50610400 -0.00058560  0.50428666
   0.49262443  0.50746015 -0.00008235
   0.06780550  0.04069871  0.16109801
   0.96150490  0.93217030  0.83776458
   0.50067920  0.49933527  0.49997946
cubic-FASnI3                            
           1
     6.382242   -0.002111    0.081208
    -0.002095    6.385959    0.089475
     0.081447    0.089726    6.351073
   C    H    I    N    Sn
     1     5     3     2     1
Direct configuration=    13
   0.94718867  0.05344543  0.99832017
   0.06739863  0.81312358  0.82573990
   0.18603273  0.93666609  0.17570125
   0.05273357  0.14678825  0.27751930
   0.85763167  0.94445759  0.71981814
   0.82738916  0.17299980  0.99703053
   0.00036310  0.49496520  0.49628426
   0.50523929 -0.00050038  0.50370191
   0.49376290  0.50630901 -0.00007011
   0.06773675  0.04096872  0.16176193
   0.96173828  0.93176916  0.83703406
   0.50056082  0.49944905  0.49998201
cubic-FASnI3                            
           1
     6.384043   -0.003709    0.084524
    -0.003690    6.387514    0.092789
     0.084775    0.093054    6.348989
   C    H    I    N    Sn
     1     5     3     2     1
Direct configuration=    14
   0.94726108  0.05342039  0.99838639
   0.06745911  0.81319447  0.82593188
   0.18605889  0.93654342  0.17555277
   0.05254694  0.14679224  0.27717330
   0.85757904  0.94468320  0.72011454
   0.82737954  0.17298049  0.99702022
   0.00037712  0.49474531  0.49613132
   0.50547070 -0.00052091  0.50385374
   0.49343535  0.50664032 -0.00007396
   0.06774202  0.04092066  0.16158188
   0.96186711  0.93162879  0.83717005
   0.50059864  0.49941310  0.49998122
cubic-FASnI3                            
           1
     6.389445   -0.008504    0.094470
    -0.008475    6.392179    0.102732
     0.094758    0.103038    6.342735
   C    H    I    N    Sn
     1     5     3     2     1
Direct configuration=    15
   0.94747812  0.05334526  0.99858507
   0.06764027  0.81340685  0.82650781
   0.18613747  0.93617573  0.17510734
   0.05198774  0.14680464  0.27613522
   0.85742093  0.94535937  0.72100376
   0.82735068  0.17292256  0.99698933
   0.00041927  0.49408603  0.49567268
   0.50616450 -0.00058253  0.50430903
   0.49245325  0.50763378 -0.00008550
   0.06775810  0.04077680  0.16104163
   0.96225318  0.93120768  0.83757817
   0.50071204  0.49930532  0.49997884
cubic-FASnI3                            
           1
     6.400250   -0.018093    0.114361
    -0.018045    6.401510    0.122618
     0.114723    0.123006    6.330229
   C    H    I    N    Sn
     1     5     3     2     1
Direct configuration=    16
   0.94791111  0.05319480  0.99898238
   0.06800080  0.81382977  0.82765963
   0.18629535  0.93544241  0.17421645
   0.05087357  0.14683182  0.27405863
   0.85710319  0.94670770  0.72278241
   0.82729303  0.17280685  0.99692776
   0.00050391  0.49276993  0.49475637
   0.50754943 -0.00070605  0.50521857
   0.49049223  0.50961782 -0.00010866
   0.06779170  0.04049101  0.15996041
   0.96302275  0.93036535  0.83839536
   0.50093848  0.49909009  0.49997405
cubic-FASnI3                            
           1
     6.392650   -0.011348    0.100369
    -0.011313    6.394947    0.108630
     0.100679    0.108960    6.339026
   C    H    I    N    Sn
     1     5     3     2     1
Direct configuration=    17
   0.94760808  0.05330090  0.99870294
   0.06774972  0.81353487  0.82684946
   0.18618329  0.93595537  0.17484316
   0.05165137  0.14680932  0.27552000
   0.85732882  0.94576490  0.72153093
   0.82733351  0.17288806  0.99697078
   0.00044386  0.49369228  0.49539954
   0.50657899 -0.00061877  0.50458023
   0.49186719  0.50822625 -0.00009229
   0.06776600  0.04068931  0.16072199
   0.96248504  0.93095801  0.83781917
   0.50077968  0.49924102  0.49997745
cubic-FASnI3                            
           1
     6.392885   -0.012957    0.106593
    -0.012906    6.394374    0.114223
     0.106879    0.114524    6.336435
   C    H    I    N    Sn
     1     5     3     2     1
Direct configuration=    18
   0.94775670  0.05301438  0.99850398
   0.06787188  0.81365906  0.82722627
   0.18604366  0.93587768  0.17450622
   0.05137789  0.14687153  0.27503459
   0.85723375  0.94608198  0.72198309
   0.82728134  0.17289624  0.99695397
   0.00045676  0.49334384  0.49516452
   0.50694408 -0.00064205  0.50480673
   0.49130401  0.50879405 -0.00009792
   0.06812772  0.04057601  0.16083657
   0.96252250  0.93079824  0.83792884
   0.50085525  0.49917054  0.49997651
cubic-FASnI3                            
           1
     6.393092   -0.014379    0.112095
    -0.014315    6.393867    0.119167
     0.112359    0.119442    6.334144
   C    H    I    N    Sn
     1     5     3     2     1
Direct configuration=    19
   0.94788818  0.05276128  0.99832813
   0.06797957  0.81376859  0.82755930
   0.18592051  0.93580923  0.17420844
   0.05113659  0.14692684  0.27460550
   0.85714941  0.94636192  0.72238278
   0.82723525  0.17290347  0.99693914
   0.00046827  0.49303600  0.49495695
   0.50726659 -0.00066272  0.50500672
   0.49080634  0.50929588 -0.00010286
   0.06844732  0.04047585  0.16093767
   0.96255549  0.93065691  0.83802591
   0.50092204  0.49910826  0.49997567
cubic-FASnI3                            
           1
     6.389785   -0.014590    0.116697
    -0.014532    6.390867    0.124407
     0.116893    0.124609    6.332777
   C    H    I    N    Sn
     1     5     3     2     1
Direct configuration=    20
   0.94810594  0.05259650  0.99842744
   0.06815244  0.81376609  0.82784465
   0.18587423  0.93570453  0.17394596
   0.05101113  0.14708778  0.27444567
   0.85707973  0.94649243  0.72263965
   0.82733720  0.17276903  0.99692346
   0.00046067  0.49277876  0.49479572
   0.50754196 -0.00066431  0.50516352
   0.49033801  0.50976830 -0.00010762
   0.06851259  0.04047226  0.16080439
   0.96236327  0.93063184  0.83796567
   0.50099840  0.49903829  0.49997487
cubic-FASnI3                            
           1
     6.383405   -0.014998    0.125576
    -0.014950    6.385079    0.134517
     0.125640    0.134577    6.330139
   C    H    I    N    Sn
     1     5     3     2     1
Direct configuration=    21
   0.94852610  0.05227832  0.99861903
   0.06848572  0.81376082  0.82839502
   0.18578526  0.93550285  0.17343971
   0.05076921  0.14739866  0.27413716
   0.85694491  0.94674392  0.72313518
   0.82753398  0.17250956  0.99689328
   0.00044618  0.49228251  0.49448503
   0.50807327 -0.00066758  0.50546570
   0.48943408  0.51068009 -0.00011691
   0.06863874  0.04046555  0.16054711
   0.96199233  0.93058352  0.83784973
   0.50114577  0.49890327  0.49997332
cubic-FASnI3                            
           1
     6.380339   -0.014887    0.129447
    -0.014835    6.381866    0.138422
     0.129441    0.138404    6.329572
   C    H    I    N    Sn
     1     5     3     2     1
Direct configuration=    22
   0.94853684  0.05223823  0.99859937
   0.06857885  0.81376382  0.82857204
   0.18582579  0.93537621  0.17326852
   0.05072243  0.14750317  0.27403472
   0.85680034  0.94681315  0.72320025
   0.82767291  0.17235582  0.99689415
   0.00043083  0.49208903  0.49436911
   0.50827732 -0.00065886  0.50557397
   0.48906140  0.51105496 -0.00012058
   0.06865551  0.04053031  0.16047741
   0.96200062  0.93053354  0.83798180
   0.50121271  0.49884212  0.49997262
cubic-FASnI3                            
           1
     6.371140   -0.014556    0.141058
    -0.014492    6.372225    0.150137
     0.140844    0.149885    6.327871
   C    H    I    N    Sn
     1     5     3     2     1
Direct configuration=    23
   0.94856913  0.05211793  0.99854043
   0.06885805  0.81377251  0.82910297
   0.18594776  0.93499639  0.17275506
   0.05058221  0.14781704  0.27372725
   0.85636628  0.94702083  0.72339561
   0.82808992  0.17189436  0.99689680
   0.00038497  0.49150850  0.49402169
   0.50888956 -0.00063288  0.50589842
   0.48794283  0.51218015 -0.00013161
   0.06870594  0.04072482  0.16026812
   0.96202526  0.93038327  0.83837812
   0.50141364  0.49865858  0.49997050
cubic-FASnI3                            
           1
     6.366546   -0.014391    0.146856
    -0.014320    6.367410    0.155987
     0.146538    0.155617    6.327022
   C    H    I    N    Sn
     1     5     3     2     1
Direct configuration=    24
   0.94858533  0.05205783  0.99851107
   0.06899720  0.81377637  0.82936791
   0.18600921  0.93480690  0.17249883
   0.05051236  0.14797429  0.27357350
   0.85614905  0.94712451  0.72349341
   0.82829846  0.17166358  0.99689817
   0.00036235  0.49121848  0.49384874
   0.50919544 -0.00062019  0.50605989
   0.48738345  0.51274290 -0.00013714
   0.06873135  0.04082229  0.16016335
   0.96203723  0.93030776  0.83857621
   0.50151412  0.49856678  0.49996943
cubic-FASnI3                            
           1
     6.364848   -0.014618    0.148511
    -0.014548    6.365778    0.157772
     0.148141    0.157349    6.327037
   C    H    I    N    Sn
     1     5     3     2     1
Direct configuration=    25
   0.94852750  0.05209822  0.99849880
   0.06905533  0.81368017  0.82935568
   0.18609306  0.93475360  0.17249369
   0.05058438  0.14794315  0.27348712
   0.85616420  0.94705277  0.72356565
   0.82819073  0.17176856  0.99690355
   0.00032649  0.49113432  0.49381176
   0.50928529 -0.00058764  0.50608955
   0.48716508  0.51296159 -0.00013832
   0.06877941  0.04085060  0.16014708
   0.96203561  0.93026865  0.83863993
   0.50156848  0.49851752  0.49996888
cubic-FASnI3                            
           1
     6.359752   -0.015300    0.153475
    -0.015233    6.360879    0.163129
     0.152952    0.162546    6.327082
   C    H    I    N    Sn
     1     5     3     2     1
Direct configuration=    26
   0.94835395  0.05221943  0.99846200
   0.06922977  0.81339152  0.82931904
   0.18634468  0.93459366  0.17247825
   0.05080054  0.14784980  0.27322793
   0.85620962  0.94683742  0.72378244
   0.82786746  0.17208359  0.99691969
   0.00021891  0.49088179  0.49370092
   0.50955491 -0.00049000  0.50617842
   0.48650981  0.51361780 -0.00014186
   0.06892363  0.04093556  0.16009820
   0.96203068  0.93015123  0.83883113
   0.50173160  0.49836970  0.49996721
cubic-FASnI3                            
           1
     6.349560   -0.016665    0.163403
    -0.016602    6.351083    0.173842
     0.162575    0.172940    6.327172
   C    H    I    N    Sn
     1     5     3     2     1
Direct configuration=    27
   0.94800666  0.05246205  0.99838846
   0.06957891  0.81281387  0.82924599
   0.18684830  0.93427361  0.17244725
   0.05123360  0.14766343  0.27270935
   0.85630016  0.94640605  0.72421634
   0.82722043  0.17271404  0.99695194
   0.00000366  0.49037648  0.49347986
   0.51009448 -0.00029464  0.50635557
   0.48519837  0.51493112 -0.00014904
   0.06921241  0.04110573  0.16000005
   0.96202048  0.92991589  0.83921375
   0.50205808  0.49807386  0.49996386
cubic-FASnI3                            
           1
     6.348104   -0.016679    0.164392
    -0.016622    6.349834    0.175115
     0.163529    0.174180    6.327031
   C    H    I    N    Sn
     1     5     3     2     1
Direct configuration=    28
   0.94800480  0.05248486  0.99842628
   0.06960464  0.81275662  0.82923697
   0.18689485  0.93425656  0.17244722
   0.05129414  0.14766339  0.27267302
   0.85631963  0.94633975  0.72427668
   0.82712766  0.17280286  0.99695401
  -0.00003047  0.49031811  0.49345837
   0.51015852 -0.00026313  0.50637214
   0.48502990  0.51509994 -0.00014979
   0.06923717  0.04107493  0.15989672
   0.96203104  0.92987508  0.83926843
   0.50210368  0.49803251  0.49996331
cubic-FASnI3                            
           1
     6.343734   -0.016722    0.167356
    -0.016681    6.346089    0.178935
     0.166391    0.177901    6.326609
   C    H    I    N    Sn
     1     5     3     2     1
Direct configuration=    29
   0.94799919  0.05255327  0.99853973
   0.06968185  0.81258484  0.82920995
   0.18703451  0.93420541  0.17244712
   0.05147581  0.14766328  0.27256400
   0.85637804  0.94614080  0.72445777
   0.82684928  0.17306938  0.99696024
  -0.00013290  0.49014300  0.49339397
   0.51035067 -0.00016858  0.50642178
   0.48452437  0.51560653 -0.00015207
   0.06931150  0.04098257  0.15958672
   0.96206271  0.92975257  0.83943248
   0.50224050  0.49790844  0.49996167
cubic-FASnI3                            
           1
     6.334995   -0.016808    0.173284
    -0.016799    6.338600    0.186573
     0.172115    0.185342    6.325766
   C    H    I    N    Sn
     1     5     3     2     1
Direct configuration=    30
   0.94798787  0.05269004  0.99876656
   0.06983639  0.81224109  0.82915605
   0.18731402  0.93410304  0.17244686
   0.05183952  0.14766322  0.27234576
   0.85649477  0.94574244  0.72482015
   0.82629214  0.17360271  0.99697263
  -0.00033784  0.48979262  0.49326547
   0.51073521  0.00002057  0.50652078
   0.48351264  0.51662031 -0.00015677
   0.06946055  0.04079810  0.15896672
   0.96212594  0.92950722  0.83976074
   0.50251435  0.49766014  0.49995842
cubic-FASnI3                            
           1
     6.337307   -0.016785    0.171716
    -0.016768    6.340581    0.184553
     0.170601    0.183374    6.325989
   C    H    I    N    Sn
     1     5     3     2     1
Direct configuration=    31
   0.94799092  0.05265389  0.99870660
   0.06979545  0.81233210  0.82917023
   0.18723999  0.93413014  0.17244696
   0.05174313  0.14766316  0.27240359
   0.85646394  0.94584804  0.72472419
   0.82643970  0.17346148  0.99696938
  -0.00028358  0.48988537  0.49329930
   0.51063338 -0.00002949  0.50649475
   0.48378059  0.51635186 -0.00015546
   0.06942092  0.04084675  0.15913071
   0.96210928  0.92957230  0.83967384
   0.50244182  0.49772589  0.49995927
cubic-FASnI3                            
           1
     6.336029   -0.016266    0.172361
    -0.016245    6.339209    0.185115
     0.171235    0.183919    6.325696
   C    H    I    N    Sn
     1     5     3     2     1
Direct configuration=    32
   0.94797414  0.05263649  0.99865646
   0.06978942  0.81231843  0.82918664
   0.18725878  0.93413499  0.17242902
   0.05181397  0.14764874  0.27235529
   0.85648590  0.94577452  0.72479125
   0.82639770  0.17349915  0.99697241
  -0.00033350  0.48984693  0.49329515
   0.51067629  0.00001860  0.50649167
   0.48362486  0.51650717 -0.00015518
   0.06947131  0.04082651  0.15908129
   0.96212220  0.92955195  0.83976095
   0.50249450  0.49767801  0.49995840
cubic-FASnI3                            
           1
     6.332196   -0.014707    0.174294
    -0.014677    6.335094    0.186801
     0.173135    0.185555    6.324816
   C    H    I    N    Sn
     1     5     3     2     1
Direct configuration=    33
   0.94792379  0.05258428  0.99850607
   0.06977133  0.81227743  0.82923589
   0.18731514  0.93414954  0.17237518
   0.05202656  0.14760547  0.27221035
   0.85655178  0.94555390  0.72499247
   0.82627164  0.17361217  0.99698151
  -0.00048330  0.48973158  0.49328273
   0.51080505  0.00016290  0.50648240
   0.48315753  0.51697326 -0.00015433
   0.06962250  0.04076578  0.15893302
   0.96216094  0.92949086  0.84002230
   0.50265259  0.49753432  0.49995578
cubic-FASnI3                            
           1
     6.331331   -0.014356    0.174730
    -0.014323    6.334166    0.187181
     0.173564    0.185924    6.324618
   C    H    I    N    Sn
     1     5     3     2     1
Direct configuration=    34
   0.94791244  0.05257250  0.99847213
   0.06976724  0.81226816  0.82924701
   0.18732787  0.93415283  0.17236302
   0.05207458  0.14759570  0.27217762
   0.85656665  0.94550406  0.72503790
   0.82624317  0.17363770  0.99698357
  -0.00051712  0.48970554  0.49327994
   0.51083412  0.00019548  0.50648029
   0.48305197  0.51707855 -0.00015413
   0.06965666  0.04075207  0.15889954
   0.96216968  0.92947705  0.84008130
   0.50268830  0.49750186  0.49995518
cubic-FASnI3                            
           1
     6.329626   -0.013008    0.175425
    -0.012971    6.332316    0.187785
     0.174258    0.186517    6.324438
   C    H    I    N    Sn
     1     5     3     2     1
Direct configuration=    35
   0.94789919  0.05259686  0.99847853
   0.06978515  0.81223576  0.82932640
   0.18741500  0.93410312  0.17229957
   0.05221412  0.14755754  0.27206366
   0.85660353  0.94536245  0.72517632
   0.82623186  0.17363525  0.99698367
  -0.00063834  0.48965976  0.49329727
   0.51088886  0.00031393  0.50644900
   0.48276821  0.51736159 -0.00015233
   0.06967587  0.04081548  0.15884395
   0.96213068  0.92940110  0.84010453
   0.50280145  0.49739867  0.49995277
cubic-FASnI3                            
           1
     6.325033   -0.009376    0.177297
    -0.009330    6.327332    0.189411
     0.176128    0.188112    6.323953
   C    H    I    N    Sn
     1     5     3     2     1
Direct configuration=    36
   0.94786348  0.05266251  0.99849578
   0.06983338  0.81214840  0.82954028
   0.18764978  0.93396916  0.17212866
   0.05259017  0.14745467  0.27175665
   0.85670292  0.94498085  0.72554923
   0.82620140  0.17362865  0.99698396
  -0.00096495  0.48953646  0.49334399
   0.51103628  0.00063305  0.50636469
   0.48200348  0.51812439 -0.00014747
   0.06972763  0.04098633  0.15869419
   0.96202562  0.92919648  0.84016713
   0.50310636  0.49712056  0.49994628
cubic-FASnI3                            
           1
     6.324195   -0.007903    0.177994
    -0.007850    6.326270    0.189922
     0.176834    0.188621    6.324400
   C    H    I    N    Sn
     1     5     3     2     1
Direct configuration=    37
   0.94786899  0.05267664  0.99851429
   0.06991910  0.81205305  0.82965645
   0.18775417  0.93389888  0.17202898
   0.05272783  0.14749236  0.27168769
   0.85665396  0.94483444  0.72562737
   0.82617825  0.17363266  0.99697866
  -0.00112709  0.48950173  0.49338045
   0.51108093  0.00079255  0.50631095
   0.48168035  0.51844648 -0.00014410
   0.06979112  0.04098890  0.15859340
   0.96199932  0.92913340  0.84024638
   0.50324863  0.49699041  0.49994285
cubic-FASnI3                            
           1
     6.321680   -0.003483    0.180087
    -0.003412    6.323086    0.191457
     0.178954    0.190146    6.325742
   C    H    I    N    Sn
     1     5     3     2     1
Direct configuration=    38
   0.94788551  0.05271905  0.99856983
   0.07017633  0.81176687  0.83000492
   0.18806746  0.93368797  0.17172994
   0.05314086  0.14760536  0.27148076
   0.85650714  0.94439514  0.72586181
   0.82610877  0.17364473  0.99696277
  -0.00161356  0.48939761  0.49348990
   0.51121479  0.00127112  0.50614970
   0.48071059  0.51941313 -0.00013398
   0.06998167  0.04099659  0.15829103
   0.96192041  0.92894414  0.84048413
   0.50367559  0.49659979  0.49993256
cubic-FASnI3                            
           1
     6.316650    0.005358    0.184271
     0.005465    6.316716    0.194526
     0.183194    0.193198    6.328425
   C    H    I    N    Sn
     1     5     3     2     1
Direct configuration=    39
   0.94791846  0.05280384  0.99868084
   0.07069118  0.81119370  0.83070170
   0.18869477  0.93326564  0.17113188
   0.05396722  0.14783101  0.27106666
   0.85621383  0.94351620  0.72633092
   0.82596975  0.17366898  0.99693104
  -0.00258681  0.48918989  0.49370911
   0.51148207  0.00222863  0.50582695
   0.47876894  0.52134876 -0.00011358
   0.07036311  0.04101186  0.15768628
   0.96176265  0.92856541  0.84095968
   0.50453040  0.49581758  0.49991188
cubic-FASnI3                            
           1
     6.306589    0.023038    0.192639
     0.023220    6.303977    0.200664
     0.191673    0.199301    6.333792
   C    H    I    N    Sn
     1     5     3     2     1
Direct configuration=    40
   0.94798403  0.05297341  0.99890267
   0.07172239  0.81004410  0.83209460
   0.18995239  0.93241895  0.16993583
   0.05562123  0.14828087  0.27023750
   0.85562856  0.94175689  0.72726997
   0.82569146  0.17371794  0.99686775
  -0.00453462  0.48877651  0.49414882
   0.51201481  0.00414517  0.50518045
   0.47487704  0.52522932 -0.00007213
   0.07112737  0.04104194  0.15647675
   0.96144729  0.92780718  0.84191096
   0.50624362  0.49424922  0.49987019
cubic-FASnI3                            
           1
     6.306221    0.023911    0.193060
     0.024098    6.303449    0.200937
     0.192102    0.199575    6.334082
   C    H    I    N    Sn
     1     5     3     2     1
Direct configuration=    41
   0.94798404  0.05296980  0.99889523
   0.07176961  0.80999085  0.83216662
   0.19001132  0.93237809  0.16987040
   0.05570165  0.14830007  0.27018718
   0.85559765  0.94167160  0.72732020
   0.82566680  0.17373318  0.99686666
  -0.00463578  0.48875679  0.49417170
   0.51204024  0.00424475  0.50514687
   0.47468122  0.52542459 -0.00006993
   0.07118613  0.04104518  0.15644417
   0.96144114  0.92775795  0.84195629
   0.50633153  0.49416862  0.49986798
cubic-FASnI3                            
           1
     6.305117    0.026531    0.194322
     0.026732    6.301867    0.201757
     0.193391    0.200396    6.334954
   C    H    I    N    Sn
     1     5     3     2     1
Direct configuration=    42
   0.94798409  0.05295899  0.99887289
   0.07191127  0.80983107  0.83238269
   0.19018817  0.93225549  0.16967410
   0.05594293  0.14835765  0.27003620
   0.85550493  0.94141574  0.72747088
   0.82559283  0.17377891  0.99686341
  -0.00493927  0.48869766  0.49424035
   0.51211648  0.00454352  0.50504614
   0.47409364  0.52601055 -0.00006331
   0.07136244  0.04105488  0.15634640
   0.96142272  0.92761026  0.84209227
   0.50659532  0.49392678  0.49986134
cubic-FASnI3                            
           1
     6.302909    0.031770    0.196845
     0.032000    6.298703    0.203395
     0.195967    0.202037    6.336696
   C    H    I    N    Sn