  12  12   0   0
  0.2091076E+02  0.6307400E-09  0.6307400E-09  0.6307400E-09  0.5000000E-15
   1.0000000000000000E-004
  CAR 
 cubic-FASnI3                            
     10.20042597    -21.89677130  301      2.28980423      1.00000000
    -21.897  0.0000E+00  0.0000E+00
    -21.790  0.0000E+00  0.0000E+00
    -21.683  0.0000E+00  0.0000E+00
    -21.576  0.0000E+00  0.0000E+00
    -21.469  0.0000E+00  0.0000E+00
    -21.362  0.0000E+00  0.0000E+00
    -21.255  0.0000E+00  0.0000E+00
    -21.148  0.0000E+00  0.0000E+00
    -21.041  0.0000E+00  0.0000E+00
    -20.934  0.0000E+00  0.0000E+00
    -20.827  0.0000E+00  0.0000E+00
    -20.720  0.8512E-17  0.9107E-18
    -20.613  0.5003E-08  0.5353E-09
    -20.506  0.4365E-03  0.4670E-04
    -20.399  0.1545E-01  0.1699E-02
    -20.292  0.2809E-02  0.2000E-02
    -20.185  0.4597E-06  0.2000E-02
    -20.078  0.1311E-13  0.2000E-02
    -19.971  0.0000E+00  0.2000E-02
    -19.864  0.0000E+00  0.2000E-02
    -19.757  0.0000E+00  0.2000E-02
    -19.650  0.0000E+00  0.2000E-02
    -19.543  0.0000E+00  0.2000E-02
    -19.436  0.0000E+00  0.2000E-02
    -19.329  0.0000E+00  0.2000E-02
    -19.222  0.0000E+00  0.2000E-02
    -19.115  0.0000E+00  0.2000E-02
    -19.008  0.0000E+00  0.2000E-02
    -18.901  0.0000E+00  0.2000E-02
    -18.794  0.0000E+00  0.2000E-02
    -18.687  0.0000E+00  0.2000E-02
    -18.580  0.0000E+00  0.2000E-02
    -18.473  0.0000E+00  0.2000E-02
    -18.366  0.0000E+00  0.2000E-02
    -18.259  0.1955E-10  0.2000E-02
    -18.152  0.2712E-04  0.2003E-02
    -18.045  0.9573E-02  0.3027E-02
    -17.938  0.9071E-02  0.3998E-02
    -17.831  0.2167E-04  0.4000E-02
    -17.724  0.1282E-10  0.4000E-02
    -17.617  0.0000E+00  0.4000E-02
    -17.510  0.0000E+00  0.4000E-02
    -17.403  0.0000E+00  0.4000E-02
    -17.296  0.0000E+00  0.4000E-02
    -17.189  0.0000E+00  0.4000E-02
    -17.082  0.0000E+00  0.4000E-02
    -16.975  0.0000E+00  0.4000E-02
    -16.868  0.0000E+00  0.4000E-02
    -16.761  0.0000E+00  0.4000E-02
    -16.654  0.0000E+00  0.4000E-02
    -16.547  0.0000E+00  0.4000E-02
    -16.440  0.0000E+00  0.4000E-02
    -16.333  0.0000E+00  0.4000E-02
    -16.226  0.0000E+00  0.4000E-02
    -16.119  0.0000E+00  0.4000E-02
    -16.012  0.0000E+00  0.4000E-02
    -15.905  0.0000E+00  0.4000E-02
    -15.798  0.0000E+00  0.4000E-02
    -15.691  0.0000E+00  0.4000E-02
    -15.584  0.0000E+00  0.4000E-02
    -15.477  0.0000E+00  0.4000E-02
    -15.370  0.0000E+00  0.4000E-02
    -15.263  0.0000E+00  0.4000E-02
    -15.156  0.0000E+00  0.4000E-02
    -15.049  0.0000E+00  0.4000E-02
    -14.942  0.0000E+00  0.4000E-02
    -14.835  0.0000E+00  0.4000E-02
    -14.728  0.0000E+00  0.4000E-02
    -14.621  0.0000E+00  0.4000E-02
    -14.514  0.0000E+00  0.4000E-02
    -14.407  0.0000E+00  0.4000E-02
    -14.300  0.0000E+00  0.4000E-02
    -14.193  0.0000E+00  0.4000E-02
    -14.086  0.0000E+00  0.4000E-02
    -13.979  0.0000E+00  0.4000E-02
    -13.872  0.0000E+00  0.4000E-02
    -13.765  0.0000E+00  0.4000E-02
    -13.658  0.0000E+00  0.4000E-02
    -13.552  0.0000E+00  0.4000E-02
    -13.445  0.0000E+00  0.4000E-02
    -13.338  0.0000E+00  0.4000E-02
    -13.231  0.0000E+00  0.4000E-02
    -13.124  0.0000E+00  0.4000E-02
    -13.017  0.0000E+00  0.4000E-02
    -12.910  0.0000E+00  0.4000E-02
    -12.803  0.0000E+00  0.4000E-02
    -12.696  0.0000E+00  0.4000E-02
    -12.589  0.0000E+00  0.4000E-02
    -12.482  0.0000E+00  0.4000E-02
    -12.375  0.0000E+00  0.4000E-02
    -12.268  0.0000E+00  0.4000E-02
    -12.161  0.0000E+00  0.4000E-02
    -12.054  0.1621E-19  0.4000E-02
    -11.947  0.1425E-10  0.4000E-02
    -11.840  0.3636E-05  0.4000E-02
    -11.733  0.1293E-02  0.4139E-02
    -11.626  0.1249E-01  0.5475E-02
    -11.519  0.4874E-02  0.5996E-02
    -11.412  0.3290E-04  0.6000E-02
    -11.305  0.3921E-03  0.6042E-02
    -11.198  0.5494E-02  0.6630E-02
    -11.091  0.7944E-02  0.7480E-02
    -10.984  0.7861E-02  0.8321E-02
    -10.877  0.1110E-01  0.9509E-02
    -10.770  0.6573E-02  0.1021E-01
    -10.663  0.1256E-01  0.1156E-01
    -10.556  0.4081E-02  0.1199E-01
    -10.449  0.7504E-04  0.1200E-01
    -10.342  0.4287E-08  0.1200E-01
    -10.235  0.6875E-16  0.1200E-01
    -10.128  0.0000E+00  0.1200E-01
    -10.021  0.0000E+00  0.1200E-01
     -9.914  0.0000E+00  0.1200E-01
     -9.807  0.0000E+00  0.1200E-01
     -9.700  0.1386E-11  0.1200E-01
     -9.593  0.5755E-05  0.1200E-01
     -9.486  0.6100E-02  0.1265E-01
     -9.379  0.1248E-01  0.1399E-01
     -9.272  0.1090E-03  0.1400E-01
     -9.165  0.3624E-09  0.1400E-01
     -9.058  0.2610E-17  0.1400E-01
     -8.951  0.2074E-08  0.1400E-01
     -8.844  0.2780E-03  0.1403E-01
     -8.737  0.1464E-01  0.1560E-01
     -8.630  0.3779E-02  0.1600E-01
     -8.523  0.1142E-05  0.1600E-01
     -8.416  0.6860E-13  0.1600E-01
     -8.309  0.0000E+00  0.1600E-01
     -8.202  0.0000E+00  0.1600E-01
     -8.095  0.0000E+00  0.1600E-01
     -7.988  0.0000E+00  0.1600E-01
     -7.881  0.0000E+00  0.1600E-01
     -7.774  0.0000E+00  0.1600E-01
     -7.667  0.0000E+00  0.1600E-01
     -7.560  0.0000E+00  0.1600E-01
     -7.453  0.0000E+00  0.1600E-01
     -7.346  0.0000E+00  0.1600E-01
     -7.239  0.3033E-14  0.1600E-01
     -7.132  0.5566E-07  0.1600E-01
     -7.025  0.5325E-03  0.1606E-01
     -6.918  0.1343E-01  0.1749E-01
     -6.811  0.4725E-02  0.1800E-01
     -6.704  0.9600E-05  0.1800E-01
     -6.597  0.1504E-10  0.1800E-01
     -6.490  0.6609E-06  0.1800E-01
     -6.383  0.1671E-03  0.1802E-01
     -6.276  0.1242E-03  0.1803E-01
     -6.169  0.9762E-04  0.1804E-01
     -6.062  0.1521E-02  0.1820E-01
     -5.955  0.1356E-03  0.1822E-01
     -5.848  0.1152E-02  0.1834E-01
     -5.741  0.2954E-02  0.1866E-01
     -5.634  0.3409E-03  0.1869E-01
     -5.527  0.2297E-02  0.1894E-01
     -5.420  0.1291E-01  0.2032E-01
     -5.313  0.9185E-02  0.2130E-01
     -5.206  0.3414E-03  0.2134E-01
     -5.099  0.3121E-02  0.2168E-01
     -4.992  0.9601E-03  0.2178E-01
     -4.885  0.4542E-02  0.2226E-01
     -4.778  0.1399E-01  0.2376E-01
     -4.671  0.1796E-02  0.2395E-01
     -4.564  0.1500E-03  0.2397E-01
     -4.457  0.1934E-07  0.2397E-01
     -4.350  0.2850E-09  0.2397E-01
     -4.243  0.1216E-04  0.2397E-01
     -4.136  0.2513E-03  0.2400E-01
     -4.029  0.2858E-04  0.2400E-01
     -3.922  0.2278E-08  0.2400E-01
     -3.815  0.2977E-16  0.2400E-01
     -3.708  0.0000E+00  0.2400E-01
     -3.601  0.0000E+00  0.2400E-01
     -3.494  0.0000E+00  0.2400E-01
     -3.387  0.0000E+00  0.2400E-01
     -3.280  0.0000E+00  0.2400E-01
     -3.173  0.0000E+00  0.2400E-01
     -3.066  0.0000E+00  0.2400E-01
     -2.959  0.0000E+00  0.2400E-01
     -2.852  0.9080E-18  0.2400E-01
     -2.745  0.2662E-09  0.2400E-01
     -2.638  0.1208E-04  0.2400E-01
     -2.531  0.8662E-03  0.2409E-01
     -2.424  0.5254E-02  0.2466E-01
     -2.317  0.5039E-02  0.2520E-01
     -2.210  0.2359E-02  0.2545E-01
     -2.103  0.4596E-03  0.2550E-01
     -1.997  0.3013E-04  0.2550E-01
     -1.890  0.2231E-04  0.2550E-01
     -1.783  0.2444E-02  0.2576E-01
     -1.676  0.8511E-02  0.2667E-01
     -1.569  0.1055E-01  0.2780E-01
     -1.462  0.8964E-02  0.2876E-01
     -1.355  0.6304E-02  0.2944E-01
     -1.248  0.4174E-02  0.2988E-01
     -1.141  0.4196E-02  0.3033E-01
     -1.034  0.4675E-02  0.3083E-01
     -0.927  0.5431E-02  0.3141E-01
     -0.820  0.6344E-02  0.3209E-01
     -0.713  0.3894E-02  0.3251E-01
     -0.606  0.5896E-02  0.3314E-01
     -0.499  0.1015E-01  0.3423E-01
     -0.392  0.9692E-02  0.3526E-01
     -0.285  0.8415E-02  0.3616E-01
     -0.178  0.1002E-01  0.3723E-01
     -0.071  0.1333E-01  0.3866E-01
      0.036  0.1072E-01  0.3981E-01
      0.143  0.9727E-02  0.4085E-01
      0.250  0.1297E-01  0.4224E-01
      0.357  0.3325E-02  0.4259E-01
      0.464  0.1658E-02  0.4277E-01
      0.571  0.1347E-02  0.4291E-01
      0.678  0.2064E-02  0.4313E-01
      0.785  0.3094E-02  0.4347E-01
      0.892  0.1758E-02  0.4365E-01
      0.999  0.3197E-03  0.4369E-01
      1.106  0.1812E-06  0.4369E-01
      1.213  0.2061E-04  0.4369E-01
      1.320  0.4132E-03  0.4373E-01
      1.427  0.1295E-02  0.4387E-01
      1.534  0.8914E-03  0.4397E-01
      1.641  0.8514E-05  0.4397E-01
      1.748  0.2648E-10  0.4397E-01
      1.855  0.3883E-11  0.4397E-01
      1.962  0.1636E-05  0.4397E-01
      2.069  0.1993E-03  0.4399E-01
      2.176  0.9111E-04  0.4400E-01
      2.283  0.6400E-07  0.4400E-01
      2.390  0.8864E-14  0.4400E-01
      2.497  0.6643E-09  0.4400E-01
      2.604  0.1968E-04  0.4400E-01
      2.711  0.4846E-03  0.4405E-01
      2.818  0.4219E-03  0.4410E-01
      2.925  0.2046E-02  0.4432E-01
      3.032  0.1674E-02  0.4450E-01
      3.139  0.3705E-02  0.4489E-01
      3.246  0.2147E-02  0.4512E-01
      3.353  0.2437E-02  0.4538E-01
      3.460  0.7957E-03  0.4547E-01
      3.567  0.2867E-03  0.4550E-01
      3.674  0.2982E-05  0.4550E-01
      3.781  0.1316E-10  0.4550E-01
      3.888  0.0000E+00  0.4550E-01
      3.995  0.0000E+00  0.4550E-01
      4.102  0.0000E+00  0.4550E-01
      4.209  0.3243E-19  0.4550E-01
      4.316  0.8082E-10  0.4550E-01
      4.423  0.2422E-04  0.4550E-01
      4.530  0.3697E-02  0.4590E-01
      4.637  0.1165E-01  0.4714E-01
      4.744  0.8957E-02  0.4810E-01
      4.851  0.4360E-02  0.4857E-01
      4.958  0.7294E-02  0.4935E-01
      5.065  0.4344E-02  0.4981E-01
      5.172  0.4664E-02  0.5031E-01
      5.279  0.1718E-02  0.5050E-01
      5.386  0.2110E-04  0.5050E-01
      5.493  0.1282E-05  0.5050E-01
      5.600  0.1908E-03  0.5052E-01
      5.707  0.9996E-04  0.5053E-01
      5.814  0.3289E-04  0.5053E-01
      5.921  0.1132E-02  0.5066E-01
      6.028  0.5831E-03  0.5072E-01
      6.135  0.5093E-03  0.5077E-01
      6.242  0.3349E-02  0.5113E-01
      6.349  0.4581E-02  0.5162E-01
      6.456  0.4894E-02  0.5214E-01
      6.563  0.7382E-02  0.5293E-01
      6.670  0.5601E-02  0.5353E-01
      6.777  0.3792E-02  0.5394E-01
      6.884  0.3025E-02  0.5426E-01
      6.991  0.2792E-02  0.5456E-01
      7.098  0.5920E-02  0.5520E-01
      7.205  0.7234E-02  0.5597E-01
      7.312  0.4824E-02  0.5649E-01
      7.419  0.8370E-02  0.5738E-01
      7.526  0.8052E-02  0.5824E-01
      7.633  0.6189E-02  0.5890E-01
      7.740  0.6928E-02  0.5965E-01
      7.847  0.5872E-02  0.6027E-01
      7.954  0.5900E-02  0.6091E-01
      8.061  0.6452E-02  0.6160E-01
      8.168  0.3595E-02  0.6198E-01
      8.275  0.4926E-02  0.6251E-01
      8.382  0.4328E-02  0.6297E-01
      8.489  0.4647E-02  0.6347E-01
      8.596  0.3003E-02  0.6379E-01
      8.703  0.9392E-03  0.6389E-01
      8.810  0.1025E-02  0.6400E-01
      8.917  0.1077E-04  0.6400E-01
      9.024  0.1103E-09  0.6400E-01
      9.131  0.1946E-18  0.6400E-01
      9.238  0.0000E+00  0.6400E-01
      9.345  0.0000E+00  0.6400E-01
      9.451  0.0000E+00  0.6400E-01
      9.558  0.0000E+00  0.6400E-01
      9.665  0.0000E+00  0.6400E-01
      9.772  0.0000E+00  0.6400E-01
      9.879  0.0000E+00  0.6400E-01
      9.986  0.0000E+00  0.6400E-01
     10.093  0.0000E+00  0.6400E-01
     10.200  0.0000E+00  0.6400E-01
