       N       E                     dE             d eps       ncg     rms          ort
DAV:   1     0.171088647461E+03    0.17109E+03   -0.22717E+04  1152   0.152E+03
DAV:   2    -0.128113929703E+03   -0.29920E+03   -0.28886E+03  1152   0.232E+02
DAV:   3    -0.160256680209E+03   -0.32143E+02   -0.31944E+02  1152   0.850E+01
DAV:   4    -0.160886558914E+03   -0.62988E+00   -0.62900E+00  1152   0.131E+01
DAV:   5    -0.160901397906E+03   -0.14839E-01   -0.14838E-01  1152   0.197E+00
SDA:   6    -0.144768093551E+03    0.16133E+02   -0.14838E-01  1152   0.161E+02 0.000E+00
CGA:   7    -0.147546295969E+03   -0.27782E+01   -0.27828E+01  1152   0.121E+01 0.145E+00
CGA:   8    -0.147924100719E+03   -0.37780E+00   -0.37638E+00  1152   0.388E+00 0.852E-02
CGA:   9    -0.148043840122E+03   -0.11974E+00   -0.11969E+00  1152   0.121E+00 0.532E-03
CGA:  10    -0.148080628058E+03   -0.36788E-01   -0.36792E-01  1152   0.321E-01-0.648E-04
CGA:  11    -0.148091918342E+03   -0.11290E-01   -0.11301E-01  1152   0.882E-02-0.822E-04
CGA:  12    -0.148094712674E+03   -0.27943E-02   -0.27949E-02  1152   0.175E-02-0.412E-05
CGA:  13    -0.148095348536E+03   -0.63586E-03   -0.63676E-03  1152   0.418E-03-0.627E-05
CGA:  14    -0.148095499385E+03   -0.15085E-03   -0.15083E-03  1152   0.873E-04 0.200E-06
CGA:  15    -0.148095533183E+03   -0.33799E-04   -0.33510E-04  1152   0.208E-04 0.199E-05
CGA:  16    -0.148095541805E+03   -0.86218E-05   -0.85581E-05  1152   0.493E-05 0.405E-06
CGA:  17    -0.148095543889E+03   -0.20843E-05   -0.20745E-05  1152   0.109E-05 0.596E-07
   1 F= -.14809554E+03 E0= -.14809554E+03  d E =-.148096E+03
       N       E                     dE             d eps       ncg     rms          ort
SDA:   1    -0.147080557142E+03    0.10150E+01    0.00000E+00  1152   0.213E+01 0.000E+00
CGA:   2    -0.147809485084E+03   -0.72893E+00   -0.72838E+00  1152   0.583E+00 0.530E-02
CGA:   3    -0.147967871510E+03   -0.15839E+00   -0.15839E+00  1152   0.998E-01-0.279E-03
CGA:   4    -0.147993044776E+03   -0.25173E-01   -0.25177E-01  1152   0.171E-01 0.905E-04
CGA:   5    -0.147997946975E+03   -0.49022E-02   -0.49019E-02  1152   0.355E-02 0.166E-04
CGA:   6    -0.147999150730E+03   -0.12038E-02   -0.12031E-02  1152   0.101E-02 0.101E-04
CGA:   7    -0.147999533657E+03   -0.38293E-03   -0.38249E-03  1152   0.330E-03 0.399E-05
CGA:   8    -0.147999657129E+03   -0.12347E-03   -0.12346E-03  1152   0.817E-04 0.732E-07
CGA:   9    -0.147999687050E+03   -0.29921E-04   -0.29918E-04  1152   0.166E-04 0.388E-07
CGA:  10    -0.147999693189E+03   -0.61395E-05   -0.61323E-05  1152   0.349E-05 0.887E-07
CGA:  11    -0.147999694586E+03   -0.13964E-05   -0.14146E-05  1152   0.877E-06-0.163E-06
   2 F= -.14799969E+03 E0= -.14799969E+03  d E =0.958493E-01
       N       E                     dE             d eps       ncg     rms          ort
SDA:   1    -0.147676684312E+03    0.32301E+00    0.00000E+00  1152   0.103E+01 0.000E+00
CGA:   2    -0.148024797271E+03   -0.34811E+00   -0.34820E+00  1152   0.284E+00-0.170E-02
CGA:   3    -0.148100986355E+03   -0.76189E-01   -0.76212E-01  1152   0.482E-01 0.184E-03
CGA:   4    -0.148113366453E+03   -0.12380E-01   -0.12377E-01  1152   0.821E-02-0.214E-04
CGA:   5    -0.148115719328E+03   -0.23529E-02   -0.23528E-02  1152   0.175E-02-0.535E-05
CGA:   6    -0.148116304366E+03   -0.58504E-03   -0.58509E-03  1152   0.515E-03-0.157E-05
CGA:   7    -0.148116497885E+03   -0.19352E-03   -0.19353E-03  1152   0.168E-03-0.976E-07
CGA:   8    -0.148116560618E+03   -0.62733E-04   -0.62706E-04  1152   0.413E-04 0.415E-06
CGA:   9    -0.148116575661E+03   -0.15042E-04   -0.15035E-04  1152   0.850E-05 0.144E-06
CGA:  10    -0.148116578841E+03   -0.31804E-05   -0.31871E-05  1152   0.189E-05-0.112E-06
   3 F= -.14811658E+03 E0= -.14811658E+03  d E =-.210350E-01
       N       E                     dE             d eps       ncg     rms          ort
SDA:   1    -0.147545416780E+03    0.57116E+00    0.00000E+00  1152   0.141E+01 0.000E+00
CGA:   2    -0.147960626827E+03   -0.41521E+00   -0.41547E+00  1152   0.467E+00 0.498E-02
CGA:   3    -0.148091114504E+03   -0.13049E+00   -0.13045E+00  1152   0.765E-01-0.107E-03
CGA:   4    -0.148110062781E+03   -0.18948E-01   -0.18954E-01  1152   0.145E-01 0.572E-04
CGA:   5    -0.148114049314E+03   -0.39865E-02   -0.39874E-02  1152   0.338E-02 0.223E-04
CGA:   6    -0.148115169988E+03   -0.11207E-02   -0.11207E-02  1152   0.101E-02 0.358E-06
CGA:   7    -0.148115569434E+03   -0.39945E-03   -0.39969E-03  1152   0.336E-03-0.289E-05
CGA:   8    -0.148115691794E+03   -0.12236E-03   -0.12228E-03  1152   0.807E-04 0.162E-05
CGA:   9    -0.148115720472E+03   -0.28678E-04   -0.28658E-04  1152   0.172E-04 0.564E-06
CGA:  10    -0.148115726829E+03   -0.63566E-05   -0.63613E-05  1152   0.373E-05-0.101E-06
CGA:  11    -0.148115728252E+03   -0.14234E-05   -0.14221E-05  1152   0.838E-06 0.225E-07
   4 F= -.14811573E+03 E0= -.14811573E+03  d E =0.850589E-03
       N       E                     dE             d eps       ncg     rms          ort
SDA:   1    -0.147984955849E+03    0.13077E+00    0.00000E+00  1152   0.359E+00 0.000E+00
CGA:   2    -0.148089865027E+03   -0.10491E+00   -0.10486E+00  1152   0.120E+00-0.526E-03
CGA:   3    -0.148123138779E+03   -0.33274E-01   -0.33281E-01  1152   0.194E-01 0.148E-04
CGA:   4    -0.148128038553E+03   -0.48998E-02   -0.48987E-02  1152   0.363E-02-0.127E-04
CGA:   5    -0.148129038247E+03   -0.99969E-03   -0.99930E-03  1152   0.839E-03-0.881E-05
CGA:   6    -0.148129313614E+03   -0.27537E-03   -0.27536E-03  1152   0.244E-03 0.907E-06
CGA:   7    -0.148129410753E+03   -0.97139E-04   -0.96957E-04  1152   0.799E-04 0.231E-05
CGA:   8    -0.148129440957E+03   -0.30204E-04   -0.30238E-04  1152   0.201E-04-0.629E-06
CGA:   9    -0.148129448086E+03   -0.71286E-05   -0.71362E-05  1152   0.426E-05-0.233E-06
CGA:  10    -0.148129449594E+03   -0.15085E-05   -0.15069E-05  1152   0.863E-06 0.503E-07
   5 F= -.14812945E+03 E0= -.14812945E+03  d E =-.128708E-01
       N       E                     dE             d eps       ncg     rms          ort
SDA:   1    -0.148062433139E+03    0.67015E-01    0.00000E+00  1152   0.145E+00 0.000E+00
CGA:   2    -0.148116576808E+03   -0.54144E-01   -0.54143E-01  1152   0.422E-01 0.136E-04
CGA:   3    -0.148127190823E+03   -0.10614E-01   -0.10614E-01  1152   0.611E-02 0.692E-06
CGA:   4    -0.148128729005E+03   -0.15382E-02   -0.15383E-02  1152   0.102E-02 0.105E-05
CGA:   5    -0.148129022957E+03   -0.29395E-03   -0.29395E-03  1152   0.202E-03-0.110E-06
CGA:   6    -0.148129090300E+03   -0.67344E-04   -0.67343E-04  1152   0.547E-04 0.904E-07
CGA:   7    -0.148129110718E+03   -0.20418E-04   -0.20389E-04  1152   0.169E-04 0.582E-06
CGA:   8    -0.148129117023E+03   -0.63042E-05   -0.62922E-05  1152   0.422E-05 0.289E-06
CGA:   9    -0.148129118633E+03   -0.16105E-05   -0.16115E-05  1152   0.897E-06-0.212E-07
   6 F= -.14812912E+03 E0= -.14812912E+03  d E =0.330961E-03
       N       E                     dE             d eps       ncg     rms          ort
SDA:   1    -0.148111940998E+03    0.17176E-01    0.00000E+00  1152   0.408E-01 0.000E+00
CGA:   2    -0.148127179541E+03   -0.15239E-01   -0.15239E-01  1152   0.118E-01-0.849E-05
CGA:   3    -0.148130148553E+03   -0.29690E-02   -0.29691E-02  1152   0.171E-02 0.364E-06
CGA:   4    -0.148130578719E+03   -0.43017E-03   -0.43012E-03  1152   0.286E-03-0.581E-06
CGA:   5    -0.148130660724E+03   -0.82005E-04   -0.82008E-04  1152   0.557E-04 0.780E-07
CGA:   6    -0.148130679233E+03   -0.18509E-04   -0.18508E-04  1152   0.148E-04 0.105E-06
CGA:   7    -0.148130684884E+03   -0.56515E-05   -0.56630E-05  1152   0.476E-05-0.211E-06
CGA:   8    -0.148130686644E+03   -0.17593E-05   -0.17647E-05  1152   0.122E-05-0.116E-06
   7 F= -.14813069E+03 E0= -.14813069E+03  d E =-.123705E-02
       N       E                     dE             d eps       ncg     rms          ort
SDA:   1    -0.148117153302E+03    0.13532E-01    0.00000E+00  1152   0.349E-01 0.000E+00
CGA:   2    -0.148130113199E+03   -0.12960E-01   -0.12960E-01  1152   0.943E-02-0.288E-05
CGA:   3    -0.148132353421E+03   -0.22402E-02   -0.22401E-02  1152   0.138E-02-0.123E-05
CGA:   4    -0.148132701312E+03   -0.34789E-03   -0.34790E-03  1152   0.242E-03 0.156E-06
CGA:   5    -0.148132769834E+03   -0.68523E-04   -0.68516E-04  1152   0.485E-04-0.155E-06
CGA:   6    -0.148132786719E+03   -0.16884E-04   -0.16889E-04  1152   0.140E-04-0.175E-06
CGA:   7    -0.148132792075E+03   -0.53567E-05   -0.53550E-05  1152   0.439E-05 0.302E-07
CGA:   8    -0.148132793667E+03   -0.15914E-05   -0.15904E-05  1152   0.103E-05 0.285E-07
   8 F= -.14813279E+03 E0= -.14813279E+03  d E =-.210702E-02
       N       E                     dE             d eps       ncg     rms          ort
SDA:   1    -0.147996046192E+03    0.13675E+00    0.00000E+00  1152   0.314E+00 0.000E+00
CGA:   2    -0.148112676873E+03   -0.11663E+00   -0.11663E+00  1152   0.849E-01-0.812E-04
CGA:   3    -0.148132846594E+03   -0.20170E-01   -0.20172E-01  1152   0.124E-01-0.309E-05
CGA:   4    -0.148135992494E+03   -0.31459E-02   -0.31457E-02  1152   0.219E-02-0.260E-06
CGA:   5    -0.148136613983E+03   -0.62149E-03   -0.62147E-03  1152   0.446E-03-0.563E-06
CGA:   6    -0.148136770089E+03   -0.15611E-03   -0.15611E-03  1152   0.130E-03-0.265E-06
CGA:   7    -0.148136820461E+03   -0.50372E-04   -0.50357E-04  1152   0.416E-04 0.249E-06
CGA:   8    -0.148136835524E+03   -0.15063E-04   -0.15059E-04  1152   0.977E-05 0.125E-06
CGA:   9    -0.148136839116E+03   -0.35920E-05   -0.35924E-05  1152   0.198E-05-0.816E-08
   9 F= -.14813684E+03 E0= -.14813684E+03  d E =-.615247E-02
       N       E                     dE             d eps       ncg     rms          ort
SDA:   1    -0.147570933686E+03    0.56590E+00    0.00000E+00  1152   0.126E+01 0.000E+00
CGA:   2    -0.148036707192E+03   -0.46577E+00   -0.46583E+00  1152   0.342E+00-0.134E-02
CGA:   3    -0.148117784837E+03   -0.81078E-01   -0.81119E-01  1152   0.502E-01 0.101E-04
CGA:   4    -0.148130600326E+03   -0.12815E-01   -0.12814E-01  1152   0.901E-02-0.726E-05
CGA:   5    -0.148133180753E+03   -0.25804E-02   -0.25804E-02  1152   0.189E-02-0.168E-05
CGA:   6    -0.148133850788E+03   -0.67003E-03   -0.67002E-03  1152   0.571E-03 0.280E-06
CGA:   7    -0.148134072091E+03   -0.22130E-03   -0.22124E-03  1152   0.182E-03 0.962E-06
CGA:   8    -0.148134137962E+03   -0.65871E-04   -0.65860E-04  1152   0.426E-04 0.352E-06
CGA:   9    -0.148134153607E+03   -0.15644E-04   -0.15646E-04  1152   0.862E-05-0.249E-07
CGA:  10    -0.148134156887E+03   -0.32808E-05   -0.32817E-05  1152   0.195E-05-0.204E-07
  10 F= -.14813416E+03 E0= -.14813416E+03  d E =-.347024E-02
       N       E                     dE             d eps       ncg     rms          ort
SDA:   1    -0.147869250368E+03    0.26490E+00    0.00000E+00  1152   0.600E+00 0.000E+00
CGA:   2    -0.148090885707E+03   -0.22164E+00   -0.22164E+00  1152   0.164E+00-0.651E-04
CGA:   3    -0.148129914279E+03   -0.39029E-01   -0.39026E-01  1152   0.239E-01 0.156E-04
CGA:   4    -0.148135965863E+03   -0.60516E-02   -0.60519E-02  1152   0.421E-02-0.610E-06
CGA:   5    -0.148137160069E+03   -0.11942E-02   -0.11942E-02  1152   0.854E-03 0.556E-06
CGA:   6    -0.148137454656E+03   -0.29459E-03   -0.29456E-03  1152   0.243E-03 0.156E-05
CGA:   7    -0.148137548095E+03   -0.93439E-04   -0.93417E-04  1152   0.776E-04 0.400E-06
CGA:   8    -0.148137576336E+03   -0.28240E-04   -0.28241E-04  1152   0.183E-04-0.262E-07
CGA:   9    -0.148137583049E+03   -0.67132E-05   -0.67127E-05  1152   0.367E-05 0.159E-07
CGA:  10    -0.148137584442E+03   -0.13931E-05   -0.13919E-05  1152   0.812E-06 0.278E-07
  11 F= -.14813758E+03 E0= -.14813758E+03  d E =-.689780E-02
       N       E                     dE             d eps       ncg     rms          ort
SDA:   1    -0.148118394869E+03    0.19188E-01    0.00000E+00  1152   0.476E-01 0.000E+00
CGA:   2    -0.148135475057E+03   -0.17080E-01   -0.17080E-01  1152   0.136E-01 0.526E-05
CGA:   3    -0.148138746365E+03   -0.32713E-02   -0.32712E-02  1152   0.199E-02 0.717E-06
CGA:   4    -0.148139253355E+03   -0.50699E-03   -0.50705E-03  1152   0.342E-03 0.666E-06
CGA:   5    -0.148139351010E+03   -0.97655E-04   -0.97681E-04  1152   0.683E-04 0.556E-06
CGA:   6    -0.148139374172E+03   -0.23162E-04   -0.23160E-04  1152   0.193E-04 0.250E-06
CGA:   7    -0.148139381514E+03   -0.73420E-05   -0.73366E-05  1152   0.609E-05 0.116E-06
CGA:   8    -0.148139383789E+03   -0.22752E-05   -0.22738E-05  1152   0.147E-05 0.378E-07
  12 F= -.14813938E+03 E0= -.14813938E+03  d E =-.179935E-02
       N       E                     dE             d eps       ncg     rms          ort
SDA:   1    -0.148129142436E+03    0.10239E-01    0.00000E+00  1152   0.241E-01 0.000E+00
CGA:   2    -0.148137789517E+03   -0.86471E-02   -0.86471E-02  1152   0.685E-02 0.428E-05
CGA:   3    -0.148139441000E+03   -0.16515E-02   -0.16515E-02  1152   0.100E-02 0.278E-06
CGA:   4    -0.148139697283E+03   -0.25628E-03   -0.25632E-03  1152   0.172E-03 0.443E-06
CGA:   5    -0.148139746545E+03   -0.49262E-04   -0.49279E-04  1152   0.347E-04 0.394E-06
CGA:   6    -0.148139758365E+03   -0.11821E-04   -0.11818E-04  1152   0.992E-05 0.172E-06
CGA:   7    -0.148139762150E+03   -0.37851E-05   -0.37811E-05  1152   0.315E-05 0.786E-07
CGA:   8    -0.148139763326E+03   -0.11760E-05   -0.11749E-05  1152   0.763E-06 0.256E-07
  13 F= -.14813976E+03 E0= -.14813976E+03  d E =-.217888E-02
       N       E                     dE             d eps       ncg     rms          ort
SDA:   1    -0.148133402398E+03    0.63598E-02    0.00000E+00  1152   0.164E-01 0.000E+00
CGA:   2    -0.148139197863E+03   -0.57955E-02   -0.57954E-02  1152   0.447E-02 0.552E-05
CGA:   3    -0.148140320666E+03   -0.11228E-02   -0.11229E-02  1152   0.717E-03 0.150E-05
CGA:   4    -0.148140502977E+03   -0.18231E-03   -0.18235E-03  1152   0.123E-03 0.570E-06
CGA:   5    -0.148140538962E+03   -0.35986E-04   -0.36004E-04  1152   0.261E-04 0.511E-06
CGA:   6    -0.148140547706E+03   -0.87439E-05   -0.87433E-05  1152   0.752E-05 0.809E-07
CGA:   7    -0.148140550563E+03   -0.28572E-05   -0.28539E-05  1152   0.240E-05 0.615E-07
CGA:   8    -0.148140551453E+03   -0.89012E-06   -0.88783E-06  1152   0.591E-06 0.585E-07
  14 F= -.14814055E+03 E0= -.14814055E+03  d E =-.788127E-03
       N       E                     dE             d eps       ncg     rms          ort
SDA:   1    -0.148139269861E+03    0.12807E-02    0.00000E+00  1152   0.313E-02 0.000E+00
CGA:   2    -0.148140373370E+03   -0.11035E-02   -0.11035E-02  1152   0.850E-03 0.223E-05
CGA:   3    -0.148140587049E+03   -0.21368E-03   -0.21373E-03  1152   0.136E-03 0.648E-06
CGA:   4    -0.148140621706E+03   -0.34657E-04   -0.34675E-04  1152   0.233E-04 0.250E-06
CGA:   5    -0.148140628490E+03   -0.67839E-05   -0.67917E-05  1152   0.498E-05 0.223E-06
CGA:   6    -0.148140630169E+03   -0.16791E-05   -0.16787E-05  1152   0.146E-05 0.334E-07
CGA:   7    -0.148140630721E+03   -0.55192E-06   -0.55048E-06  1152   0.463E-06 0.258E-07
CGA:   8    -0.148140630890E+03   -0.16946E-06   -0.16867E-06  1152   0.111E-06 0.248E-07
  15 F= -.14814063E+03 E0= -.14814063E+03  d E =-.867564E-03
       N       E                     dE             d eps       ncg     rms          ort
SDA:   1    -0.148137368649E+03    0.32621E-02    0.00000E+00  1152   0.913E-02 0.000E+00
CGA:   2    -0.148140773187E+03   -0.34045E-02   -0.34046E-02  1152   0.254E-02-0.216E-05
CGA:   3    -0.148141388484E+03   -0.61530E-03   -0.61542E-03  1152   0.389E-03 0.192E-05
CGA:   4    -0.148141485317E+03   -0.96834E-04   -0.96881E-04  1152   0.720E-04 0.583E-06
CGA:   5    -0.148141506037E+03   -0.20720E-04   -0.20723E-04  1152   0.160E-04 0.795E-07
CGA:   6    -0.148141511515E+03   -0.54775E-05   -0.54809E-05  1152   0.494E-05-0.184E-06
CGA:   7    -0.148141513364E+03   -0.18491E-05   -0.18487E-05  1152   0.155E-05 0.319E-08
CGA:   8    -0.148141513916E+03   -0.55175E-06   -0.55026E-06  1152   0.360E-06 0.460E-07
  16 F= -.14814151E+03 E0= -.14814151E+03  d E =-.883025E-03
       N       E                     dE             d eps       ncg     rms          ort
SDA:   1    -0.148105331259E+03    0.36182E-01    0.00000E+00  1152   0.823E-01 0.000E+00
CGA:   2    -0.148136024676E+03   -0.30693E-01   -0.30692E-01  1152   0.228E-01 0.224E-04
CGA:   3    -0.148141556074E+03   -0.55314E-02   -0.55305E-02  1152   0.351E-02 0.440E-05
CGA:   4    -0.148142428753E+03   -0.87268E-03   -0.87285E-03  1152   0.651E-03 0.190E-05
CGA:   5    -0.148142616124E+03   -0.18737E-03   -0.18738E-03  1152   0.145E-03 0.271E-06
CGA:   6    -0.148142665359E+03   -0.49235E-04   -0.49243E-04  1152   0.441E-04-0.473E-06
CGA:   7    -0.148142682095E+03   -0.16736E-04   -0.16733E-04  1152   0.140E-04 0.567E-07
CGA:   8    -0.148142687185E+03   -0.50898E-05   -0.50846E-05  1152   0.334E-05 0.145E-06
CGA:   9    -0.148142688416E+03   -0.12308E-05   -0.12305E-05  1152   0.706E-06 0.757E-09
  17 F= -.14814269E+03 E0= -.14814269E+03  d E =-.205753E-02
       N       E                     dE             d eps       ncg     rms          ort
SDA:   1    -0.148137223459E+03    0.54637E-02    0.00000E+00  1152   0.140E-01 0.000E+00
CGA:   2    -0.148142278442E+03   -0.50550E-02   -0.50551E-02  1152   0.424E-02-0.348E-06
CGA:   3    -0.148143299007E+03   -0.10206E-02   -0.10206E-02  1152   0.630E-03-0.307E-06
CGA:   4    -0.148143463272E+03   -0.16426E-03   -0.16427E-03  1152   0.114E-03 0.789E-07
CGA:   5    -0.148143496151E+03   -0.32880E-04   -0.32869E-04  1152   0.262E-04-0.305E-06
CGA:   6    -0.148143504700E+03   -0.85489E-05   -0.85481E-05  1152   0.770E-05 0.183E-06
CGA:   7    -0.148143507596E+03   -0.28958E-05   -0.28920E-05  1152   0.236E-05 0.776E-07
CGA:   8    -0.148143508516E+03   -0.91953E-06   -0.92189E-06  1152   0.613E-06-0.387E-07
  18 F= -.14814351E+03 E0= -.14814351E+03  d E =-.820100E-03
       N       E                     dE             d eps       ncg     rms          ort
SDA:   1    -0.148142786263E+03    0.72133E-03    0.00000E+00  1152   0.174E-02 0.000E+00
CGA:   2    -0.148143416077E+03   -0.62981E-03   -0.62980E-03  1152   0.525E-03 0.547E-06
CGA:   3    -0.148143542722E+03   -0.12664E-03   -0.12663E-03  1152   0.778E-04-0.146E-06
CGA:   4    -0.148143563084E+03   -0.20362E-04   -0.20364E-04  1152   0.139E-04 0.227E-07
CGA:   5    -0.148143567152E+03   -0.40677E-05   -0.40643E-05  1152   0.332E-05-0.113E-06
CGA:   6    -0.148143568211E+03   -0.10596E-05   -0.10596E-05  1152   0.956E-06 0.620E-07
CGA:   7    -0.148143568572E+03   -0.36087E-06   -0.35976E-06  1152   0.295E-06 0.248E-07
CGA:   8    -0.148143568693E+03   -0.12070E-06   -0.12204E-06  1152   0.842E-07-0.154E-07
  19 F= -.14814357E+03 E0= -.14814357E+03  d E =-.880277E-03
       N       E                     dE             d eps       ncg     rms          ort
SDA:   1    -0.148138988028E+03    0.45805E-02    0.00000E+00  1152   0.125E-01 0.000E+00
CGA:   2    -0.148143285864E+03   -0.42978E-02   -0.42978E-02  1152   0.341E-02 0.207E-05
CGA:   3    -0.148144171104E+03   -0.88524E-03   -0.88523E-03  1152   0.552E-03-0.572E-06
CGA:   4    -0.148144310838E+03   -0.13973E-03   -0.13975E-03  1152   0.932E-04 0.282E-06
CGA:   5    -0.148144337588E+03   -0.26750E-04   -0.26748E-04  1152   0.188E-04-0.606E-07
CGA:   6    -0.148144343599E+03   -0.60109E-05   -0.60110E-05  1152   0.506E-05 0.429E-07
CGA:   7    -0.148144345428E+03   -0.18294E-05   -0.18286E-05  1152   0.149E-05 0.265E-07
CGA:   8    -0.148144345997E+03   -0.56920E-06   -0.56755E-06  1152   0.375E-06 0.278E-07
  20 F= -.14814435E+03 E0= -.14814435E+03  d E =-.777304E-03
       N       E                     dE             d eps       ncg     rms          ort
SDA:   1    -0.148135507606E+03    0.88378E-02    0.00000E+00  1152   0.215E-01 0.000E+00
CGA:   2    -0.148142891296E+03   -0.73837E-02   -0.73837E-02  1152   0.585E-02 0.104E-05
CGA:   3    -0.148144411522E+03   -0.15202E-02   -0.15202E-02  1152   0.947E-03-0.631E-06
CGA:   4    -0.148144651605E+03   -0.24008E-03   -0.24010E-03  1152   0.160E-03 0.365E-06
CGA:   5    -0.148144697469E+03   -0.45864E-04   -0.45861E-04  1152   0.324E-04-0.819E-07
CGA:   6    -0.148144707819E+03   -0.10350E-04   -0.10350E-04  1152   0.873E-05 0.628E-07
CGA:   7    -0.148144710980E+03   -0.31605E-05   -0.31588E-05  1152   0.258E-05 0.374E-07
CGA:   8    -0.148144711967E+03   -0.98742E-06   -0.98526E-06  1152   0.654E-06 0.382E-07
  21 F= -.14814471E+03 E0= -.14814471E+03  d E =-.114327E-02
       N       E                     dE             d eps       ncg     rms          ort
SDA:   1    -0.148138197076E+03    0.65139E-02    0.00000E+00  1152   0.159E-01 0.000E+00
CGA:   2    -0.148144327928E+03   -0.61309E-02   -0.61309E-02  1152   0.451E-02-0.124E-06
CGA:   3    -0.148145427681E+03   -0.10998E-02   -0.10997E-02  1152   0.704E-03-0.219E-05
CGA:   4    -0.148145604158E+03   -0.17648E-03   -0.17649E-03  1152   0.128E-03 0.213E-06
CGA:   5    -0.148145641470E+03   -0.37312E-04   -0.37302E-04  1152   0.296E-04-0.335E-06
CGA:   6    -0.148145651322E+03   -0.98517E-05   -0.98513E-05  1152   0.909E-05 0.511E-07
CGA:   7    -0.148145654627E+03   -0.33051E-05   -0.33034E-05  1152   0.288E-05 0.405E-07
CGA:   8    -0.148145655708E+03   -0.10815E-05   -0.10817E-05  1152   0.747E-06-0.458E-08
  22 F= -.14814566E+03 E0= -.14814566E+03  d E =-.943741E-03
       N       E                     dE             d eps       ncg     rms          ort
SDA:   1    -0.148124438847E+03    0.21216E-01    0.00000E+00  1152   0.466E-01 0.000E+00
CGA:   2    -0.148142379403E+03   -0.17941E-01   -0.17941E-01  1152   0.133E-01-0.742E-05
CGA:   3    -0.148145608663E+03   -0.32293E-02   -0.32295E-02  1152   0.206E-02-0.320E-05
CGA:   4    -0.148146126571E+03   -0.51791E-03   -0.51791E-03  1152   0.374E-03 0.280E-06
CGA:   5    -0.148146235686E+03   -0.10912E-03   -0.10910E-03  1152   0.867E-04-0.577E-06
CGA:   6    -0.148146264631E+03   -0.28945E-04   -0.28943E-04  1152   0.268E-04 0.126E-06
CGA:   7    -0.148146274399E+03   -0.97683E-05   -0.97649E-05  1152   0.852E-05 0.893E-07
CGA:   8    -0.148146277587E+03   -0.31882E-05   -0.31883E-05  1152   0.220E-05-0.244E-08
  23 F= -.14814628E+03 E0= -.14814628E+03  d E =-.156562E-02
       N       E                     dE             d eps       ncg     rms          ort
SDA:   1    -0.148139941170E+03    0.63332E-02    0.00000E+00  1152   0.152E-01 0.000E+00
CGA:   2    -0.148145761312E+03   -0.58201E-02   -0.58201E-02  1152   0.393E-02 0.171E-05
CGA:   3    -0.148146762425E+03   -0.10011E-02   -0.10011E-02  1152   0.616E-03-0.105E-05
CGA:   4    -0.148146918221E+03   -0.15580E-03   -0.15580E-03  1152   0.121E-03 0.111E-06
CGA:   5    -0.148146953879E+03   -0.35658E-04   -0.35658E-04  1152   0.301E-04 0.120E-07
CGA:   6    -0.148146964197E+03   -0.10318E-04   -0.10315E-04  1152   0.931E-05 0.150E-06
CGA:   7    -0.148146967696E+03   -0.34989E-05   -0.34964E-05  1152   0.300E-05 0.477E-07
CGA:   8    -0.148146968793E+03   -0.10971E-05   -0.10963E-05  1152   0.724E-06 0.150E-07
  24 F= -.14814697E+03 E0= -.14814697E+03  d E =-.691206E-03
       N       E                     dE             d eps       ncg     rms          ort
SDA:   1    -0.148145355372E+03    0.16123E-02    0.00000E+00  1152   0.367E-02 0.000E+00
CGA:   2    -0.148146760450E+03   -0.14051E-02   -0.14050E-02  1152   0.950E-03 0.103E-05
CGA:   3    -0.148147002541E+03   -0.24209E-03   -0.24205E-03  1152   0.148E-03-0.584E-06
CGA:   4    -0.148147040158E+03   -0.37616E-04   -0.37620E-04  1152   0.289E-04 0.552E-07
CGA:   5    -0.148147048704E+03   -0.85466E-05   -0.85464E-05  1152   0.726E-05-0.228E-08
CGA:   6    -0.148147051176E+03   -0.24719E-05   -0.24706E-05  1152   0.224E-05 0.722E-07
CGA:   7    -0.148147052019E+03   -0.84315E-06   -0.84198E-06  1152   0.724E-06 0.203E-07
CGA:   8    -0.148147052285E+03   -0.26555E-06   -0.26521E-06  1152   0.174E-06 0.666E-08
  25 F= -.14814705E+03 E0= -.14814705E+03  d E =-.774698E-03
       N       E                     dE             d eps       ncg     rms          ort
SDA:   1    -0.148142985528E+03    0.40665E-02    0.00000E+00  1152   0.110E-01 0.000E+00
CGA:   2    -0.148146898842E+03   -0.39133E-02   -0.39133E-02  1152   0.298E-02-0.396E-06
CGA:   3    -0.148147663496E+03   -0.76465E-03   -0.76467E-03  1152   0.440E-03 0.107E-05
CGA:   4    -0.148147773345E+03   -0.10985E-03   -0.10987E-03  1152   0.789E-04 0.249E-06
CGA:   5    -0.148147794846E+03   -0.21501E-04   -0.21523E-04  1152   0.156E-04 0.450E-06
CGA:   6    -0.148147799901E+03   -0.50550E-05   -0.50551E-05  1152   0.422E-05 0.140E-09
CGA:   7    -0.148147801393E+03   -0.14920E-05   -0.14911E-05  1152   0.127E-05 0.263E-07
CGA:   8    -0.148147801858E+03   -0.46469E-06   -0.46214E-06  1152   0.312E-06 0.658E-07
  26 F= -.14814780E+03 E0= -.14814780E+03  d E =-.749573E-03
       N       E                     dE             d eps       ncg     rms          ort
SDA:   1    -0.148105548087E+03    0.42253E-01    0.00000E+00  1152   0.993E-01 0.000E+00
CGA:   2    -0.148140818871E+03   -0.35271E-01   -0.35269E-01  1152   0.267E-01 0.296E-04
CGA:   3    -0.148147686497E+03   -0.68676E-02   -0.68663E-02  1152   0.395E-02-0.173E-06
CGA:   4    -0.148148671310E+03   -0.98481E-03   -0.98496E-03  1152   0.710E-03 0.119E-05
CGA:   5    -0.148148865289E+03   -0.19398E-03   -0.19405E-03  1152   0.141E-03 0.142E-05
CGA:   6    -0.148148910614E+03   -0.45325E-04   -0.45325E-04  1152   0.377E-04 0.689E-07
CGA:   7    -0.148148923984E+03   -0.13371E-04   -0.13367E-04  1152   0.115E-04 0.104E-06
CGA:   8    -0.148148928267E+03   -0.42831E-05   -0.42724E-05  1152   0.292E-05 0.206E-06
  27 F= -.14814893E+03 E0= -.14814893E+03  d E =-.187598E-02
       N       E                     dE             d eps       ncg     rms          ort
SDA:   1    -0.148138294610E+03    0.10629E-01    0.00000E+00  1152   0.258E-01 0.000E+00
CGA:   2    -0.148147635091E+03   -0.93405E-02   -0.93405E-02  1152   0.693E-02-0.116E-05
CGA:   3    -0.148149419471E+03   -0.17844E-02   -0.17843E-02  1152   0.102E-02 0.198E-06
CGA:   4    -0.148149680117E+03   -0.26065E-03   -0.26067E-03  1152   0.182E-03 0.314E-06
CGA:   5    -0.148149731350E+03   -0.51233E-04   -0.51245E-04  1152   0.377E-04 0.316E-06
CGA:   6    -0.148149743752E+03   -0.12402E-04   -0.12402E-04  1152   0.106E-04-0.513E-07
CGA:   7    -0.148149747647E+03   -0.38949E-05   -0.38940E-05  1152   0.342E-05 0.152E-07
CGA:   8    -0.148149748917E+03   -0.12707E-05   -0.12676E-05  1152   0.863E-06 0.653E-07
  28 F= -.14814975E+03 E0= -.14814975E+03  d E =-.820650E-03
       N       E                     dE             d eps       ncg     rms          ort
SDA:   1    -0.148144192291E+03    0.55554E-02    0.00000E+00  1152   0.129E-01 0.000E+00
CGA:   2    -0.148148861824E+03   -0.46695E-02   -0.46696E-02  1152   0.347E-02-0.148E-05
CGA:   3    -0.148149753827E+03   -0.89200E-03   -0.89199E-03  1152   0.510E-03 0.133E-06
CGA:   4    -0.148149884200E+03   -0.13037E-03   -0.13039E-03  1152   0.910E-04 0.194E-06
CGA:   5    -0.148149909806E+03   -0.25606E-04   -0.25615E-04  1152   0.188E-04 0.228E-06
CGA:   6    -0.148149916009E+03   -0.62030E-05   -0.62033E-05  1152   0.529E-05-0.332E-07
CGA:   7    -0.148149917956E+03   -0.19464E-05   -0.19458E-05  1152   0.170E-05 0.137E-07
CGA:   8    -0.148149918585E+03   -0.62984E-06   -0.62769E-06  1152   0.425E-06 0.478E-07
  29 F= -.14814992E+03 E0= -.14814992E+03  d E =-.990318E-03
       N       E                     dE             d eps       ncg     rms          ort
SDA:   1    -0.148142486841E+03    0.74311E-02    0.00000E+00  1152   0.182E-01 0.000E+00
CGA:   2    -0.148149291152E+03   -0.68043E-02   -0.68044E-02  1152   0.467E-02-0.535E-06
CGA:   3    -0.148150477493E+03   -0.11863E-02   -0.11862E-02  1152   0.678E-03-0.174E-05
CGA:   4    -0.148150646455E+03   -0.16896E-03   -0.16898E-03  1152   0.131E-03 0.286E-06
CGA:   5    -0.148150682404E+03   -0.35949E-04   -0.35946E-04  1152   0.267E-04-0.558E-07
CGA:   6    -0.148150691265E+03   -0.88611E-05   -0.88600E-05  1152   0.736E-05 0.746E-07
CGA:   7    -0.148150693908E+03   -0.26423E-05   -0.26390E-05  1152   0.230E-05 0.907E-07
CGA:   8    -0.148150694766E+03   -0.85885E-06   -0.85700E-06  1152   0.588E-06 0.418E-07
  30 F= -.14815069E+03 E0= -.14815069E+03  d E =-.776181E-03
       N       E                     dE             d eps       ncg     rms          ort
SDA:   1    -0.148078453803E+03    0.72240E-01    0.00000E+00  1152   0.164E+00 0.000E+00
CGA:   2    -0.148139606405E+03   -0.61153E-01   -0.61156E-01  1152   0.420E-01-0.358E-04
CGA:   3    -0.148150278128E+03   -0.10672E-01   -0.10672E-01  1152   0.611E-02-0.104E-05
CGA:   4    -0.148151800585E+03   -0.15225E-02   -0.15225E-02  1152   0.118E-02 0.114E-05
CGA:   5    -0.148152125019E+03   -0.32443E-03   -0.32443E-03  1152   0.240E-03-0.100E-06
CGA:   6    -0.148152204814E+03   -0.79795E-04   -0.79791E-04  1152   0.663E-04 0.328E-06
CGA:   7    -0.148152228709E+03   -0.23895E-04   -0.23882E-04  1152   0.209E-04 0.321E-06
CGA:   8    -0.148152236493E+03   -0.77835E-05   -0.77771E-05  1152   0.537E-05 0.129E-06
CGA:   9    -0.148152238490E+03   -0.19967E-05   -0.19960E-05  1152   0.120E-05 0.206E-07
  31 F= -.14815224E+03 E0= -.14815224E+03  d E =-.231990E-02
       N       E                     dE             d eps       ncg     rms          ort
SDA:   1    -0.147857392584E+03    0.29484E+00    0.00000E+00  1152   0.654E+00 0.000E+00
CGA:   2    -0.148101129345E+03   -0.24374E+00   -0.24377E+00  1152   0.168E+00-0.374E-03
CGA:   3    -0.148143740147E+03   -0.42611E-01   -0.42623E-01  1152   0.245E-01 0.368E-04
CGA:   4    -0.148149844346E+03   -0.61042E-02   -0.61039E-02  1152   0.477E-02 0.284E-05
CGA:   5    -0.148151152304E+03   -0.13080E-02   -0.13080E-02  1152   0.966E-03 0.707E-07
CGA:   6    -0.148151474214E+03   -0.32191E-03   -0.32190E-03  1152   0.268E-03 0.992E-06
CGA:   7    -0.148151571074E+03   -0.96860E-04   -0.96829E-04  1152   0.848E-04 0.784E-06
CGA:   8    -0.148151602657E+03   -0.31583E-04   -0.31571E-04  1152   0.218E-04 0.252E-06
CGA:   9    -0.148151610726E+03   -0.80687E-05   -0.80664E-05  1152   0.482E-05 0.529E-07
CGA:  10    -0.148151612522E+03   -0.17963E-05   -0.17977E-05  1152   0.110E-05-0.357E-07
  32 F= -.14815161E+03 E0= -.14815161E+03  d E =-.169394E-02
       N       E                     dE             d eps       ncg     rms          ort
SDA:   1    -0.148034899365E+03    0.11671E+00    0.00000E+00  1152   0.261E+00 0.000E+00
CGA:   2    -0.148132522541E+03   -0.97623E-01   -0.97617E-01  1152   0.665E-01 0.765E-04
CGA:   3    -0.148149468876E+03   -0.16946E-01   -0.16947E-01  1152   0.971E-02 0.650E-05
CGA:   4    -0.148151892404E+03   -0.24235E-02   -0.24236E-02  1152   0.190E-02-0.486E-06
CGA:   5    -0.148152412357E+03   -0.51995E-03   -0.51998E-03  1152   0.391E-03 0.556E-06
CGA:   6    -0.148152542903E+03   -0.13055E-03   -0.13055E-03  1152   0.109E-03 0.605E-07
CGA:   7    -0.148152582768E+03   -0.39866E-04   -0.39873E-04  1152   0.351E-04-0.203E-06
CGA:   8    -0.148152595790E+03   -0.13022E-04   -0.13027E-04  1152   0.902E-05-0.114E-06
CGA:   9    -0.148152599095E+03   -0.33049E-05   -0.33056E-05  1152   0.199E-05-0.151E-07
  33 F= -.14815260E+03 E0= -.14815260E+03  d E =-.268051E-02
       N       E                     dE             d eps       ncg     rms          ort
SDA:   1    -0.148138097594E+03    0.14498E-01    0.00000E+00  1152   0.356E-01 0.000E+00
CGA:   2    -0.148150520307E+03   -0.12423E-01   -0.12423E-01  1152   0.954E-02 0.316E-05
CGA:   3    -0.148153057337E+03   -0.25370E-02   -0.25369E-02  1152   0.151E-02-0.143E-05
CGA:   4    -0.148153438152E+03   -0.38082E-03   -0.38084E-03  1152   0.289E-03 0.354E-06
CGA:   5    -0.148153520247E+03   -0.82096E-04   -0.82111E-04  1152   0.617E-04 0.362E-06
CGA:   6    -0.148153541174E+03   -0.20927E-04   -0.20924E-04  1152   0.185E-04 0.151E-06
CGA:   7    -0.148153547850E+03   -0.66760E-05   -0.66729E-05  1152   0.574E-05 0.944E-07
CGA:   8    -0.148153549946E+03   -0.20958E-05   -0.20939E-05  1152   0.137E-05 0.522E-07
  34 F= -.14815355E+03 E0= -.14815355E+03  d E =-.950851E-03
       N       E                     dE             d eps       ncg     rms          ort
SDA:   1    -0.148148374307E+03    0.51735E-02    0.00000E+00  1152   0.123E-01 0.000E+00
CGA:   2    -0.148152656998E+03   -0.42827E-02   -0.42827E-02  1152   0.329E-02 0.210E-05
CGA:   3    -0.148153532285E+03   -0.87529E-03   -0.87523E-03  1152   0.519E-03-0.921E-06
CGA:   4    -0.148153663452E+03   -0.13117E-03   -0.13118E-03  1152   0.988E-04 0.191E-06
CGA:   5    -0.148153691497E+03   -0.28045E-04   -0.28053E-04  1152   0.214E-04 0.194E-06
CGA:   6    -0.148153698753E+03   -0.72556E-05   -0.72544E-05  1152   0.649E-05 0.758E-07
CGA:   7    -0.148153701088E+03   -0.23356E-05   -0.23341E-05  1152   0.202E-05 0.448E-07
CGA:   8    -0.148153701826E+03   -0.73820E-06   -0.73711E-06  1152   0.484E-06 0.261E-07
  35 F= -.14815370E+03 E0= -.14815370E+03  d E =-.110273E-02
       N       E                     dE             d eps       ncg     rms          ort
SDA:   1    -0.148147671440E+03    0.60296E-02    0.00000E+00  1152   0.150E-01 0.000E+00
CGA:   2    -0.148153030243E+03   -0.53588E-02   -0.53587E-02  1152   0.403E-02 0.426E-05
CGA:   3    -0.148154105296E+03   -0.10751E-02   -0.10750E-02  1152   0.637E-03-0.102E-05
CGA:   4    -0.148154269072E+03   -0.16378E-03   -0.16378E-03  1152   0.129E-03 0.643E-07
CGA:   5    -0.148154306423E+03   -0.37351E-04   -0.37358E-04  1152   0.298E-04 0.210E-06
CGA:   6    -0.148154316909E+03   -0.10486E-04   -0.10477E-04  1152   0.946E-05 0.301E-06
CGA:   7    -0.148154320477E+03   -0.35678E-05   -0.35662E-05  1152   0.298E-05 0.344E-07
CGA:   8    -0.148154321564E+03   -0.10867E-05   -0.10870E-05  1152   0.680E-06-0.535E-08
  36 F= -.14815432E+03 E0= -.14815432E+03  d E =-.619738E-03
       N       E                     dE             d eps       ncg     rms          ort
SDA:   1    -0.148110298581E+03    0.44022E-01    0.00000E+00  1152   0.101E+00 0.000E+00
CGA:   2    -0.148146318994E+03   -0.36020E-01   -0.36021E-01  1152   0.271E-01-0.188E-06
CGA:   3    -0.148153541115E+03   -0.72221E-02   -0.72224E-02  1152   0.428E-02-0.427E-06
CGA:   4    -0.148154642007E+03   -0.11009E-02   -0.11009E-02  1152   0.866E-03 0.173E-06
CGA:   5    -0.148154893422E+03   -0.25141E-03   -0.25144E-03  1152   0.201E-03 0.641E-06
CGA:   6    -0.148154964225E+03   -0.70803E-04   -0.70775E-04  1152   0.642E-04 0.928E-06
CGA:   7    -0.148154988220E+03   -0.23995E-04   -0.23988E-04  1152   0.200E-04 0.148E-06
CGA:   8    -0.148154995508E+03   -0.72880E-05   -0.72880E-05  1152   0.455E-05 0.349E-08
CGA:   9    -0.148154997140E+03   -0.16323E-05   -0.16322E-05  1152   0.923E-06 0.676E-08
  37 F= -.14815500E+03 E0= -.14815500E+03  d E =-.129531E-02
       N       E                     dE             d eps       ncg     rms          ort
SDA:   1    -0.148153676364E+03    0.13191E-02    0.00000E+00  1152   0.385E-02 0.000E+00
CGA:   2    -0.148155107329E+03   -0.14310E-02   -0.14309E-02  1152   0.965E-03 0.781E-06
CGA:   3    -0.148155358834E+03   -0.25150E-03   -0.25146E-03  1152   0.154E-03-0.659E-06
CGA:   4    -0.148155397153E+03   -0.38319E-04   -0.38327E-04  1152   0.303E-04 0.102E-06
CGA:   5    -0.148155405653E+03   -0.84996E-05   -0.85018E-05  1152   0.643E-05 0.473E-07
CGA:   6    -0.148155407857E+03   -0.22045E-05   -0.22029E-05  1152   0.190E-05 0.887E-07
CGA:   7    -0.148155408569E+03   -0.71110E-06   -0.70957E-06  1152   0.606E-06 0.278E-07
CGA:   8    -0.148155408794E+03   -0.22537E-06   -0.22512E-06  1152   0.146E-06 0.486E-08
  38 F= -.14815541E+03 E0= -.14815541E+03  d E =-.411654E-03
       N       E                     dE             d eps       ncg     rms          ort
SDA:   1    -0.148140978549E+03    0.14430E-01    0.00000E+00  1152   0.346E-01 0.000E+00
CGA:   2    -0.148153856618E+03   -0.12878E-01   -0.12878E-01  1152   0.870E-02 0.129E-05
CGA:   3    -0.148156121368E+03   -0.22647E-02   -0.22646E-02  1152   0.139E-02-0.180E-05
CGA:   4    -0.148156467727E+03   -0.34636E-03   -0.34638E-03  1152   0.271E-03 0.321E-06
CGA:   5    -0.148156544330E+03   -0.76603E-04   -0.76610E-04  1152   0.576E-04 0.164E-06
CGA:   6    -0.148156564115E+03   -0.19785E-04   -0.19779E-04  1152   0.171E-04 0.293E-06
CGA:   7    -0.148156570471E+03   -0.63558E-05   -0.63516E-05  1152   0.546E-05 0.912E-07
CGA:   8    -0.148156572470E+03   -0.19993E-05   -0.19985E-05  1152   0.130E-05 0.155E-07
  39 F= -.14815657E+03 E0= -.14815657E+03  d E =-.157533E-02
       N       E                     dE             d eps       ncg     rms          ort
SDA:   1    -0.148096231443E+03    0.60339E-01    0.00000E+00  1152   0.139E+00 0.000E+00
CGA:   2    -0.148147710087E+03   -0.51479E-01   -0.51480E-01  1152   0.348E-01-0.852E-05
CGA:   3    -0.148156768948E+03   -0.90589E-02   -0.90590E-02  1152   0.556E-02-0.220E-05
CGA:   4    -0.148158156974E+03   -0.13880E-02   -0.13880E-02  1152   0.108E-02 0.621E-06
CGA:   5    -0.148158464275E+03   -0.30730E-03   -0.30731E-03  1152   0.231E-03 0.326E-06
CGA:   6    -0.148158543865E+03   -0.79590E-04   -0.79575E-04  1152   0.691E-04 0.662E-06
CGA:   7    -0.148158569414E+03   -0.25549E-04   -0.25539E-04  1152   0.220E-04 0.214E-06
CGA:   8    -0.148158577444E+03   -0.80297E-05   -0.80284E-05  1152   0.523E-05 0.329E-07
CGA:   9    -0.148158579328E+03   -0.18841E-05   -0.18832E-05  1152   0.107E-05 0.274E-07
  40 F= -.14815858E+03 E0= -.14815858E+03  d E =-.358219E-02
       N       E                     dE             d eps       ncg     rms          ort
SDA:   1    -0.147912176680E+03    0.24640E+00    0.00000E+00  1152   0.554E+00 0.000E+00
CGA:   2    -0.148117706994E+03   -0.20553E+00   -0.20554E+00  1152   0.139E+00-0.122E-03
CGA:   3    -0.148153940750E+03   -0.36234E-01   -0.36240E-01  1152   0.223E-01 0.169E-04
CGA:   4    -0.148159515842E+03   -0.55751E-02   -0.55748E-02  1152   0.439E-02 0.461E-06
CGA:   5    -0.148160757996E+03   -0.12422E-02   -0.12422E-02  1152   0.932E-03 0.588E-06
CGA:   6    -0.148161079979E+03   -0.32198E-03   -0.32195E-03  1152   0.279E-03 0.161E-05
CGA:   7    -0.148161183035E+03   -0.10306E-03   -0.10303E-03  1152   0.883E-04 0.566E-06
CGA:   8    -0.148161215292E+03   -0.32258E-04   -0.32255E-04  1152   0.209E-04 0.781E-07
CGA:   9    -0.148161222848E+03   -0.75552E-05   -0.75532E-05  1152   0.429E-05 0.652E-07
CGA:  10    -0.148161224430E+03   -0.15827E-05   -0.15832E-05  1152   0.955E-06-0.119E-07
  41 F= -.14816122E+03 E0= -.14816122E+03  d E =-.622729E-02
       N       E                     dE             d eps       ncg     rms          ort
SDA:   1    -0.147167702692E+03    0.99352E+00    0.00000E+00  1152   0.221E+01 0.000E+00
CGA:   2    -0.147985236118E+03   -0.81753E+00   -0.81764E+00  1152   0.562E+00-0.156E-02
CGA:   3    -0.148130484340E+03   -0.14525E+00   -0.14536E+00  1152   0.905E-01 0.341E-03
CGA:   4    -0.148153171121E+03   -0.22687E-01   -0.22682E-01  1152   0.179E-01-0.725E-05
CGA:   5    -0.148158256836E+03   -0.50857E-02   -0.50858E-02  1152   0.382E-02 0.913E-06
CGA:   6    -0.148159581443E+03   -0.13246E-02   -0.13245E-02  1152   0.115E-02 0.440E-05
CGA:   7    -0.148160006280E+03   -0.42484E-03   -0.42477E-03  1152   0.363E-03 0.159E-05
CGA:   8    -0.148160138884E+03   -0.13260E-03   -0.13260E-03  1152   0.853E-04 0.188E-06
CGA:   9    -0.148160169813E+03   -0.30929E-04   -0.30924E-04  1152   0.175E-04 0.177E-06
CGA:  10    -0.148160176235E+03   -0.64222E-05   -0.64230E-05  1152   0.385E-05-0.201E-07
CGA:  11    -0.148160177747E+03   -0.15116E-05   -0.15135E-05  1152   0.950E-06-0.337E-07
  42 F= -.14816018E+03 E0= -.14816018E+03  d E =-.518061E-02
       N       E                     dE             d eps       ncg     rms          ort
SDA:   1    -0.147759234704E+03    0.40094E+00    0.00000E+00  1152   0.893E+00 0.000E+00
CGA:   2    -0.148091827744E+03   -0.33259E+00   -0.33257E+00  1152   0.224E+00 0.300E-03
CGA:   3    -0.148150131101E+03   -0.58303E-01   -0.58306E-01  1152   0.361E-01 0.313E-04
CGA:   4    -0.148159113252E+03   -0.89822E-02   -0.89828E-02  1152   0.709E-02 0.211E-05
CGA:   5    -0.148161123706E+03   -0.20105E-02   -0.20105E-02  1152   0.151E-02 0.454E-07
CGA:   6    -0.148161651004E+03   -0.52730E-03   -0.52731E-03  1152   0.462E-03-0.656E-06
CGA:   7    -0.148161822416E+03   -0.17141E-03   -0.17141E-03  1152   0.148E-03-0.430E-07
CGA:   8    -0.148161875956E+03   -0.53540E-04   -0.53538E-04  1152   0.349E-04 0.735E-07
CGA:   9    -0.148161888512E+03   -0.12556E-04   -0.12556E-04  1152   0.714E-05-0.154E-07
CGA:  10    -0.148161891118E+03   -0.26061E-05   -0.26048E-05  1152   0.157E-05 0.435E-07
  43 F= -.14816189E+03 E0= -.14816189E+03  d E =-.689398E-02
       N       E                     dE             d eps       ncg     rms          ort
SDA:   1    -0.148159220035E+03    0.26685E-02    0.00000E+00  1152   0.732E-02 0.000E+00
CGA:   2    -0.148161916156E+03   -0.26961E-02   -0.26961E-02  1152   0.182E-02 0.106E-05
CGA:   3    -0.148162391130E+03   -0.47497E-03   -0.47489E-03  1152   0.296E-03-0.111E-05
CGA:   4    -0.148162464706E+03   -0.73576E-04   -0.73582E-04  1152   0.575E-04 0.793E-07
CGA:   5    -0.148162481008E+03   -0.16303E-04   -0.16305E-04  1152   0.124E-04 0.411E-07
CGA:   6    -0.148162485222E+03   -0.42137E-05   -0.42125E-05  1152   0.362E-05 0.129E-06
CGA:   7    -0.148162486569E+03   -0.13468E-05   -0.13450E-05  1152   0.114E-05 0.484E-07
CGA:   8    -0.148162486989E+03   -0.42036E-06   -0.42003E-06  1152   0.269E-06 0.131E-07
  44 F= -.14816249E+03 E0= -.14816249E+03  d E =-.595871E-03
       N       E                     dE             d eps       ncg     rms          ort
SDA:   1    -0.148134769257E+03    0.27717E-01    0.00000E+00  1152   0.658E-01 0.000E+00
CGA:   2    -0.148159019330E+03   -0.24250E-01   -0.24250E-01  1152   0.163E-01-0.220E-05
CGA:   3    -0.148163277721E+03   -0.42584E-02   -0.42583E-02  1152   0.266E-02-0.287E-05
CGA:   4    -0.148163939211E+03   -0.66149E-03   -0.66149E-03  1152   0.514E-03 0.177E-06
CGA:   5    -0.148164085866E+03   -0.14665E-03   -0.14666E-03  1152   0.110E-03 0.110E-06
CGA:   6    -0.148164123759E+03   -0.37893E-04   -0.37885E-04  1152   0.329E-04 0.420E-06
CGA:   7    -0.148164135984E+03   -0.12225E-04   -0.12219E-04  1152   0.105E-04 0.153E-06
CGA:   8    -0.148164139801E+03   -0.38169E-05   -0.38158E-05  1152   0.247E-05 0.381E-07
  45 F= -.14816414E+03 E0= -.14816414E+03  d E =-.224868E-02
       N       E                     dE             d eps       ncg     rms          ort
SDA:   1    -0.148049470919E+03    0.11467E+00    0.00000E+00  1152   0.263E+00 0.000E+00
CGA:   2    -0.148146353120E+03   -0.96882E-01   -0.96885E-01  1152   0.654E-01-0.395E-04
CGA:   3    -0.148163373664E+03   -0.17021E-01   -0.17022E-01  1152   0.107E-01 0.668E-06
CGA:   4    -0.148166025757E+03   -0.26521E-02   -0.26520E-02  1152   0.206E-02 0.509E-07
CGA:   5    -0.148166614208E+03   -0.58845E-03   -0.58846E-03  1152   0.441E-03 0.129E-06
CGA:   6    -0.148166766857E+03   -0.15265E-03   -0.15263E-03  1152   0.133E-03 0.926E-06
CGA:   7    -0.148166816166E+03   -0.49309E-04   -0.49293E-04  1152   0.422E-04 0.343E-06
CGA:   8    -0.148166831561E+03   -0.15395E-04   -0.15392E-04  1152   0.995E-05 0.727E-07
CGA:   9    -0.148166835164E+03   -0.36031E-05   -0.36019E-05  1152   0.205E-05 0.398E-07
  46 F= -.14816684E+03 E0= -.14816684E+03  d E =-.494405E-02
       N       E                     dE             d eps       ncg     rms          ort
SDA:   1    -0.147701350131E+03    0.46548E+00    0.00000E+00  1152   0.105E+01 0.000E+00
CGA:   2    -0.148087556520E+03   -0.38621E+00   -0.38624E+00  1152   0.262E+00-0.485E-03
CGA:   3    -0.148155576365E+03   -0.68020E-01   -0.68051E-01  1152   0.429E-01 0.883E-04
CGA:   4    -0.148166259994E+03   -0.10684E-01   -0.10682E-01  1152   0.834E-02-0.252E-05
CGA:   5    -0.148168643902E+03   -0.23839E-02   -0.23839E-02  1152   0.179E-02-0.436E-07
CGA:   6    -0.148169264453E+03   -0.62055E-03   -0.62050E-03  1152   0.541E-03 0.222E-05
CGA:   7    -0.148169465155E+03   -0.20070E-03   -0.20067E-03  1152   0.171E-03 0.825E-06
CGA:   8    -0.148169527617E+03   -0.62462E-04   -0.62458E-04  1152   0.401E-04 0.121E-06
CGA:   9    -0.148169542195E+03   -0.14578E-04   -0.14575E-04  1152   0.826E-05 0.967E-07
CGA:  10    -0.148169545261E+03   -0.30663E-05   -0.30675E-05  1152   0.185E-05-0.249E-07
  47 F= -.14816955E+03 E0= -.14816955E+03  d E =-.765414E-02
       N       E                     dE             d eps       ncg     rms          ort
SDA:   1    -0.148150361649E+03    0.19181E-01    0.00000E+00  1152   0.431E-01 0.000E+00
CGA:   2    -0.148166262213E+03   -0.15901E-01   -0.15901E-01  1152   0.107E-01-0.190E-05
CGA:   3    -0.148169048752E+03   -0.27865E-02   -0.27864E-02  1152   0.175E-02-0.346E-05
CGA:   4    -0.148169483602E+03   -0.43485E-03   -0.43483E-03  1152   0.338E-03-0.870E-07
CGA:   5    -0.148169580490E+03   -0.96888E-04   -0.96884E-04  1152   0.717E-04-0.891E-07
CGA:   6    -0.148169605414E+03   -0.24924E-04   -0.24919E-04  1152   0.216E-04 0.288E-06
CGA:   7    -0.148169613498E+03   -0.80840E-05   -0.80798E-05  1152   0.691E-05 0.982E-07
CGA:   8    -0.148169616025E+03   -0.25266E-05   -0.25262E-05  1152   0.163E-05 0.994E-08
  48 F= -.14816962E+03 E0= -.14816962E+03  d E =-.772491E-02
       N       E                     dE             d eps       ncg     rms          ort
SDA:   1    -0.148165706069E+03    0.39074E-02    0.00000E+00  1152   0.116E-01 0.000E+00
CGA:   2    -0.148170008026E+03   -0.43020E-02   -0.43019E-02  1152   0.303E-02 0.883E-06
CGA:   3    -0.148170785961E+03   -0.77794E-03   -0.77787E-03  1152   0.485E-03-0.493E-06
CGA:   4    -0.148170909508E+03   -0.12355E-03   -0.12354E-03  1152   0.931E-04-0.111E-06
CGA:   5    -0.148170936643E+03   -0.27134E-04   -0.27142E-04  1152   0.211E-04 0.222E-06
CGA:   6    -0.148170944002E+03   -0.73595E-05   -0.73556E-05  1152   0.654E-05 0.180E-06
CGA:   7    -0.148170946454E+03   -0.24519E-05   -0.24494E-05  1152   0.205E-05 0.571E-07
CGA:   8    -0.148170947205E+03   -0.75113E-06   -0.75080E-06  1152   0.477E-06 0.137E-07
  49 F= -.14817095E+03 E0= -.14817095E+03  d E =-.133118E-02
       N       E                     dE             d eps       ncg     rms          ort
SDA:   1    -0.148126471941E+03    0.44475E-01    0.00000E+00  1152   0.104E+00 0.000E+00
CGA:   2    -0.148165207916E+03   -0.38736E-01   -0.38735E-01  1152   0.272E-01 0.187E-04
CGA:   3    -0.148172196990E+03   -0.69891E-02   -0.69883E-02  1152   0.437E-02-0.288E-05
CGA:   4    -0.148173307284E+03   -0.11103E-02   -0.11103E-02  1152   0.846E-03-0.217E-06
CGA:   5    -0.148173554156E+03   -0.24687E-03   -0.24690E-03  1152   0.190E-03 0.668E-06
CGA:   6    -0.148173621025E+03   -0.66869E-04   -0.66853E-04  1152   0.592E-04 0.632E-06
CGA:   7    -0.148173643187E+03   -0.22162E-04   -0.22152E-04  1152   0.184E-04 0.212E-06
CGA:   8    -0.148173649909E+03   -0.67227E-05   -0.67209E-05  1152   0.427E-05 0.483E-07
CGA:   9    -0.148173651462E+03   -0.15532E-05   -0.15533E-05  1152   0.895E-06 0.213E-08
  50 F= -.14817365E+03 E0= -.14817365E+03  d E =-.403544E-02
       N       E                     dE             d eps       ncg     rms          ort
SDA:   1    -0.147984311350E+03    0.18934E+00    0.00000E+00  1152   0.416E+00 0.000E+00
CGA:   2    -0.148139459894E+03   -0.15515E+00   -0.15514E+00  1152   0.109E+00 0.122E-03
CGA:   3    -0.148167378675E+03   -0.27919E-01   -0.27915E-01  1152   0.175E-01-0.831E-05
CGA:   4    -0.148171827306E+03   -0.44486E-02   -0.44488E-02  1152   0.343E-02 0.426E-06
CGA:   5    -0.148172827627E+03   -0.10003E-02   -0.10004E-02  1152   0.774E-03 0.148E-05
CGA:   6    -0.148173100565E+03   -0.27294E-03   -0.27290E-03  1152   0.242E-03 0.152E-05
CGA:   7    -0.148173190973E+03   -0.90408E-04   -0.90383E-04  1152   0.749E-04 0.546E-06
CGA:   8    -0.148173218274E+03   -0.27300E-04   -0.27297E-04  1152   0.173E-04 0.934E-07
CGA:   9    -0.148173224562E+03   -0.62886E-05   -0.62885E-05  1152   0.364E-05 0.442E-08
CGA:  10    -0.148173225939E+03   -0.13771E-05   -0.13785E-05  1152   0.842E-06-0.294E-07
  51 F= -.14817323E+03 E0= -.14817323E+03  d E =-.360991E-02
       N       E                     dE             d eps       ncg     rms          ort
SDA:   1    -0.148115832917E+03    0.57392E-01    0.00000E+00  1152   0.129E+00 0.000E+00
CGA:   2    -0.148163968619E+03   -0.48136E-01   -0.48137E-01  1152   0.338E-01-0.205E-04
CGA:   3    -0.148172624321E+03   -0.86557E-02   -0.86572E-02  1152   0.544E-02 0.486E-05
CGA:   4    -0.148174003740E+03   -0.13794E-02   -0.13794E-02  1152   0.105E-02 0.255E-06
CGA:   5    -0.148174308269E+03   -0.30453E-03   -0.30450E-03  1152   0.233E-03-0.674E-06
CGA:   6    -0.148174389760E+03   -0.81491E-04   -0.81499E-04  1152   0.724E-04-0.456E-06
CGA:   7    -0.148174416675E+03   -0.26915E-04   -0.26920E-04  1152   0.225E-04-0.136E-06
CGA:   8    -0.148174424886E+03   -0.82115E-05   -0.82123E-05  1152   0.525E-05-0.248E-07
CGA:   9    -0.148174426788E+03   -0.19010E-05   -0.19010E-05  1152   0.110E-05 0.239E-08
  52 F= -.14817443E+03 E0= -.14817443E+03  d E =-.481076E-02
       N       E                     dE             d eps       ncg     rms          ort
SDA:   1    -0.148165757337E+03    0.86675E-02    0.00000E+00  1152   0.225E-01 0.000E+00
CGA:   2    -0.148174360735E+03   -0.86034E-02   -0.86032E-02  1152   0.612E-02 0.131E-05
CGA:   3    -0.148175859681E+03   -0.14989E-02   -0.14988E-02  1152   0.994E-03 0.114E-05
CGA:   4    -0.148176111488E+03   -0.25181E-03   -0.25181E-03  1152   0.185E-03-0.131E-07
CGA:   5    -0.148176164608E+03   -0.53120E-04   -0.53146E-04  1152   0.412E-04 0.581E-06
CGA:   6    -0.148176178317E+03   -0.13709E-04   -0.13709E-04  1152   0.124E-04 0.155E-06
CGA:   7    -0.148176182866E+03   -0.45486E-05   -0.45471E-05  1152   0.377E-05 0.431E-07
CGA:   8    -0.148176184252E+03   -0.13862E-05   -0.13842E-05  1152   0.892E-06 0.595E-07
  53 F= -.14817618E+03 E0= -.14817618E+03  d E =-.175746E-02
       N       E                     dE             d eps       ncg     rms          ort
SDA:   1    -0.148085694029E+03    0.90489E-01    0.00000E+00  1152   0.202E+00 0.000E+00
CGA:   2    -0.148163111603E+03   -0.77418E-01   -0.77406E-01  1152   0.543E-01 0.135E-03
CGA:   3    -0.148176483533E+03   -0.13372E-01   -0.13366E-01  1152   0.892E-02-0.403E-05
CGA:   4    -0.148178736597E+03   -0.22531E-02   -0.22532E-02  1152   0.168E-02 0.394E-06
CGA:   5    -0.148179220955E+03   -0.48436E-03   -0.48443E-03  1152   0.380E-03 0.189E-05
CGA:   6    -0.148179348390E+03   -0.12743E-03   -0.12743E-03  1152   0.115E-03 0.651E-06
CGA:   7    -0.148179390780E+03   -0.42390E-04   -0.42382E-04  1152   0.352E-04 0.212E-06
CGA:   8    -0.148179403794E+03   -0.13014E-04   -0.13006E-04  1152   0.840E-05 0.193E-06
CGA:   9    -0.148179406862E+03   -0.30682E-05   -0.30670E-05  1152   0.184E-05 0.395E-07
  54 F= -.14817941E+03 E0= -.14817941E+03  d E =-.498007E-02
       N       E                     dE             d eps       ncg     rms          ort
SDA:   1    -0.147802902492E+03    0.37650E+00    0.00000E+00  1152   0.805E+00 0.000E+00
CGA:   2    -0.148112565193E+03   -0.30966E+00   -0.30958E+00  1152   0.213E+00 0.100E-02
CGA:   3    -0.148165326217E+03   -0.52761E-01   -0.52725E-01  1152   0.357E-01-0.514E-04
CGA:   4    -0.148174296603E+03   -0.89704E-02   -0.89716E-02  1152   0.686E-02 0.225E-05
CGA:   5    -0.148176288738E+03   -0.19921E-02   -0.19923E-02  1152   0.157E-02 0.407E-05
CGA:   6    -0.148176823827E+03   -0.53509E-03   -0.53507E-03  1152   0.484E-03 0.175E-05
CGA:   7    -0.148177001469E+03   -0.17764E-03   -0.17762E-03  1152   0.148E-03 0.650E-06
CGA:   8    -0.148177055652E+03   -0.54183E-04   -0.54169E-04  1152   0.347E-04 0.387E-06
CGA:   9    -0.148177068308E+03   -0.12656E-04   -0.12654E-04  1152   0.752E-05 0.871E-07
CGA:  10    -0.148177071107E+03   -0.27993E-05   -0.27994E-05  1152   0.175E-05-0.420E-08
  55 F= -.14817707E+03 E0= -.14817707E+03  d E =-.264432E-02
       N       E                     dE             d eps       ncg     rms          ort
SDA:   1    -0.147995022169E+03    0.18205E+00    0.00000E+00  1152   0.399E+00 0.000E+00
CGA:   2    -0.148147653614E+03   -0.15263E+00   -0.15266E+00  1152   0.110E+00-0.403E-03
CGA:   3    -0.148174155686E+03   -0.26502E-01   -0.26523E-01  1152   0.177E-01 0.206E-04
CGA:   4    -0.148178626401E+03   -0.44707E-02   -0.44702E-02  1152   0.326E-02-0.501E-06
CGA:   5    -0.148179560719E+03   -0.93432E-03   -0.93422E-03  1152   0.720E-03-0.201E-05
CGA:   6    -0.148179798476E+03   -0.23776E-03   -0.23776E-03  1152   0.213E-03-0.164E-06
CGA:   7    -0.148179876535E+03   -0.78059E-04   -0.78059E-04  1152   0.648E-04-0.710E-08
CGA:   8    -0.148179900795E+03   -0.24260E-04   -0.24267E-04  1152   0.159E-04-0.163E-06
CGA:   9    -0.148179906576E+03   -0.57814E-05   -0.57821E-05  1152   0.350E-05-0.274E-07
CGA:  10    -0.148179907877E+03   -0.13009E-05   -0.13019E-05  1152   0.819E-06-0.344E-07
  56 F= -.14817991E+03 E0= -.14817991E+03  d E =-.548109E-02
       N       E                     dE             d eps       ncg     rms          ort
SDA:   1    -0.148174940839E+03    0.49657E-02    0.00000E+00  1152   0.127E-01 0.000E+00
CGA:   2    -0.148179651335E+03   -0.47105E-02   -0.47105E-02  1152   0.349E-02 0.885E-07
CGA:   3    -0.148180506959E+03   -0.85562E-03   -0.85559E-03  1152   0.554E-03-0.639E-06
CGA:   4    -0.148180650254E+03   -0.14329E-03   -0.14327E-03  1152   0.970E-04-0.289E-06
CGA:   5    -0.148180678984E+03   -0.28731E-04   -0.28726E-04  1152   0.217E-04-0.118E-06
CGA:   6    -0.148180686120E+03   -0.71351E-05   -0.71353E-05  1152   0.627E-05 0.205E-06
CGA:   7    -0.148180688517E+03   -0.23973E-05   -0.23928E-05  1152   0.196E-05 0.906E-07
CGA:   8    -0.148180689268E+03   -0.75105E-06   -0.74991E-06  1152   0.482E-06 0.271E-07
  57 F= -.14818069E+03 E0= -.14818069E+03  d E =-.781391E-03
       N       E                     dE             d eps       ncg     rms          ort
SDA:   1    -0.148166126229E+03    0.14562E-01    0.00000E+00  1152   0.332E-01 0.000E+00
CGA:   2    -0.148178459512E+03   -0.12333E-01   -0.12333E-01  1152   0.914E-02-0.119E-05
CGA:   3    -0.148180697997E+03   -0.22385E-02   -0.22385E-02  1152   0.145E-02-0.922E-06
CGA:   4    -0.148181073048E+03   -0.37505E-03   -0.37501E-03  1152   0.253E-03-0.508E-06
CGA:   5    -0.148181148209E+03   -0.75161E-04   -0.75155E-04  1152   0.568E-04-0.192E-06
CGA:   6    -0.148181167026E+03   -0.18818E-04   -0.18816E-04  1152   0.167E-04 0.349E-06
CGA:   7    -0.148181173423E+03   -0.63963E-05   -0.63887E-05  1152   0.525E-05 0.151E-06
CGA:   8    -0.148181175425E+03   -0.20026E-05   -0.20005E-05  1152   0.129E-05 0.457E-07
  58 F= -.14818118E+03 E0= -.14818118E+03  d E =-.126755E-02
       N       E                     dE             d eps       ncg     rms          ort
SDA:   1    -0.148175642580E+03    0.55308E-02    0.00000E+00  1152   0.143E-01 0.000E+00
CGA:   2    -0.148180905008E+03   -0.52624E-02   -0.52625E-02  1152   0.412E-02-0.970E-06
CGA:   3    -0.148181890518E+03   -0.98551E-03   -0.98530E-03  1152   0.633E-03-0.365E-05
CGA:   4    -0.148182051528E+03   -0.16101E-03   -0.16097E-03  1152   0.114E-03-0.413E-06
CGA:   5    -0.148182084153E+03   -0.32625E-04   -0.32604E-04  1152   0.244E-04-0.518E-06
CGA:   6    -0.148182092103E+03   -0.79501E-05   -0.79498E-05  1152   0.687E-05 0.157E-06
CGA:   7    -0.148182094640E+03   -0.25362E-05   -0.25299E-05  1152   0.208E-05 0.155E-06
CGA:   8    -0.148182095467E+03   -0.82778E-06   -0.82972E-06  1152   0.554E-06-0.305E-07
  59 F= -.14818210E+03 E0= -.14818210E+03  d E =-.920042E-03
       N       E                     dE             d eps       ncg     rms          ort
SDA:   1    -0.148159572548E+03    0.22522E-01    0.00000E+00  1152   0.515E-01 0.000E+00
CGA:   2    -0.148178486814E+03   -0.18914E-01   -0.18915E-01  1152   0.149E-01-0.154E-04
CGA:   3    -0.148182041292E+03   -0.35545E-02   -0.35549E-02  1152   0.228E-02-0.611E-05
CGA:   4    -0.148182621502E+03   -0.58021E-03   -0.58012E-03  1152   0.410E-03-0.936E-06
CGA:   5    -0.148182738801E+03   -0.11730E-03   -0.11726E-03  1152   0.874E-04-0.103E-05
CGA:   6    -0.148182767428E+03   -0.28627E-04   -0.28626E-04  1152   0.248E-04 0.302E-06
CGA:   7    -0.148182776624E+03   -0.91957E-05   -0.91822E-05  1152   0.758E-05 0.297E-06
CGA:   8    -0.148182779568E+03   -0.29442E-05   -0.29481E-05  1152   0.195E-05-0.652E-07
  60 F= -.14818278E+03 E0= -.14818278E+03  d E =-.160414E-02
       N       E                     dE             d eps       ncg     rms          ort
SDA:   1    -0.148176764135E+03    0.60125E-02    0.00000E+00  1152   0.151E-01 0.000E+00
CGA:   2    -0.148182393808E+03   -0.56297E-02   -0.56297E-02  1152   0.417E-02 0.138E-05
CGA:   3    -0.148183449521E+03   -0.10557E-02   -0.10556E-02  1152   0.654E-03-0.282E-05
CGA:   4    -0.148183615113E+03   -0.16559E-03   -0.16556E-03  1152   0.130E-03-0.353E-06
CGA:   5    -0.148183653070E+03   -0.37957E-04   -0.37954E-04  1152   0.302E-04-0.892E-07
CGA:   6    -0.148183663672E+03   -0.10602E-04   -0.10594E-04  1152   0.945E-05 0.295E-06
CGA:   7    -0.148183667237E+03   -0.35647E-05   -0.35620E-05  1152   0.294E-05 0.551E-07
CGA:   8    -0.148183668323E+03   -0.10860E-05   -0.10878E-05  1152   0.679E-06-0.440E-07
  61 F= -.14818367E+03 E0= -.14818367E+03  d E =-.888755E-03
       N       E                     dE             d eps       ncg     rms          ort
SDA:   1    -0.148122760062E+03    0.60907E-01    0.00000E+00  1152   0.136E+00 0.000E+00
CGA:   2    -0.148173293194E+03   -0.50533E-01   -0.50537E-01  1152   0.377E-01-0.473E-04
CGA:   3    -0.148182825133E+03   -0.95319E-02   -0.95337E-02  1152   0.592E-02-0.392E-05
CGA:   4    -0.148184322396E+03   -0.14973E-02   -0.14971E-02  1152   0.118E-02-0.149E-05
CGA:   5    -0.148184666630E+03   -0.34423E-03   -0.34422E-03  1152   0.271E-03-0.349E-06
CGA:   6    -0.148184762319E+03   -0.95688E-04   -0.95659E-04  1152   0.854E-04 0.985E-06
CGA:   7    -0.148184794346E+03   -0.32027E-04   -0.32018E-04  1152   0.264E-04 0.198E-06
CGA:   8    -0.148184803974E+03   -0.96280E-05   -0.96331E-05  1152   0.598E-05-0.132E-06
CGA:   9    -0.148184806107E+03   -0.21335E-05   -0.21326E-05  1152   0.121E-05 0.267E-07
  62 F= -.14818481E+03 E0= -.14818481E+03  d E =-.202654E-02
       N       E                     dE             d eps       ncg     rms          ort
SDA:   1    -0.148168571861E+03    0.16232E-01    0.00000E+00  1152   0.384E-01 0.000E+00
CGA:   2    -0.148182752315E+03   -0.14180E-01   -0.14180E-01  1152   0.103E-01 0.402E-05
CGA:   3    -0.148185410035E+03   -0.26577E-02   -0.26578E-02  1152   0.158E-02-0.148E-05
CGA:   4    -0.148185814923E+03   -0.40489E-03   -0.40486E-03  1152   0.309E-03-0.318E-06
CGA:   5    -0.148185904371E+03   -0.89449E-04   -0.89460E-04  1152   0.694E-04 0.294E-06
CGA:   6    -0.148185928925E+03   -0.24554E-04   -0.24536E-04  1152   0.217E-04 0.633E-06
CGA:   7    -0.148185937315E+03   -0.83899E-05   -0.83839E-05  1152   0.695E-05 0.104E-06
CGA:   8    -0.148185939884E+03   -0.25693E-05   -0.25693E-05  1152   0.160E-05-0.895E-08
  63 F= -.14818594E+03 E0= -.14818594E+03  d E =-.113378E-02
       N       E                     dE             d eps       ncg     rms          ort
SDA:   1    -0.148160893973E+03    0.25043E-01    0.00000E+00  1152   0.564E-01 0.000E+00
CGA:   2    -0.148181738878E+03   -0.20845E-01   -0.20845E-01  1152   0.152E-01 0.198E-05
CGA:   3    -0.148185650085E+03   -0.39112E-02   -0.39114E-02  1152   0.232E-02-0.137E-05
CGA:   4    -0.148186246150E+03   -0.59606E-03   -0.59603E-03  1152   0.451E-03-0.410E-06
CGA:   5    -0.148186377137E+03   -0.13099E-03   -0.13100E-03  1152   0.102E-03 0.390E-06
CGA:   6    -0.148186413087E+03   -0.35949E-04   -0.35927E-04  1152   0.319E-04 0.804E-06
CGA:   7    -0.148186425363E+03   -0.12277E-04   -0.12269E-04  1152   0.102E-04 0.144E-06
CGA:   8    -0.148186429127E+03   -0.37639E-05   -0.37641E-05  1152   0.234E-05-0.561E-08
  64 F= -.14818643E+03 E0= -.14818643E+03  d E =-.162302E-02
       N       E                     dE             d eps       ncg     rms          ort
SDA:   1    -0.148179608226E+03    0.68171E-02    0.00000E+00  1152   0.177E-01 0.000E+00
CGA:   2    -0.148186235885E+03   -0.66277E-02   -0.66276E-02  1152   0.467E-02 0.385E-06
CGA:   3    -0.148187391007E+03   -0.11551E-02   -0.11550E-02  1152   0.728E-03 0.106E-07
CGA:   4    -0.148187572333E+03   -0.18133E-03   -0.18133E-03  1152   0.131E-03 0.178E-07
CGA:   5    -0.148187609321E+03   -0.36989E-04   -0.37008E-04  1152   0.270E-04 0.449E-06
CGA:   6    -0.148187618382E+03   -0.90607E-05   -0.90590E-05  1152   0.790E-05 0.148E-06
CGA:   7    -0.148187621284E+03   -0.29020E-05   -0.28995E-05  1152   0.251E-05 0.645E-07
CGA:   8    -0.148187622222E+03   -0.93763E-06   -0.93563E-06  1152   0.614E-06 0.388E-07
  65 F= -.14818762E+03 E0= -.14818762E+03  d E =-.119309E-02
       N       E                     dE             d eps       ncg     rms          ort
SDA:   1    -0.148118228971E+03    0.69392E-01    0.00000E+00  1152   0.159E+00 0.000E+00
CGA:   2    -0.148177878053E+03   -0.59649E-01   -0.59645E-01  1152   0.417E-01 0.534E-04
CGA:   3    -0.148188216237E+03   -0.10338E-01   -0.10336E-01  1152   0.653E-02-0.319E-05
CGA:   4    -0.148189838112E+03   -0.16219E-02   -0.16220E-02  1152   0.118E-02 0.303E-06
CGA:   5    -0.148190173321E+03   -0.33521E-03   -0.33526E-03  1152   0.243E-03 0.138E-05
CGA:   6    -0.148190255003E+03   -0.81683E-04   -0.81675E-04  1152   0.710E-04 0.550E-06
CGA:   7    -0.148190281025E+03   -0.26022E-04   -0.26012E-04  1152   0.225E-04 0.238E-06
CGA:   8    -0.148190289412E+03   -0.83864E-05   -0.83807E-05  1152   0.551E-05 0.127E-06
CGA:   9    -0.148190291438E+03   -0.20265E-05   -0.20242E-05  1152   0.116E-05 0.643E-07
  66 F= -.14819029E+03 E0= -.14819029E+03  d E =-.386231E-02
       N       E                     dE             d eps       ncg     rms          ort
SDA:   1    -0.147903941368E+03    0.28635E+00    0.00000E+00  1152   0.635E+00 0.000E+00
CGA:   2    -0.148142494858E+03   -0.23855E+00   -0.23853E+00  1152   0.165E+00 0.362E-03
CGA:   3    -0.148183471768E+03   -0.40977E-01   -0.40966E-01  1152   0.260E-01-0.141E-04
CGA:   4    -0.148189901015E+03   -0.64292E-02   -0.64297E-02  1152   0.474E-02 0.116E-05
CGA:   5    -0.148191246046E+03   -0.13450E-02   -0.13451E-02  1152   0.974E-03 0.267E-05
CGA:   6    -0.148191574717E+03   -0.32867E-03   -0.32865E-03  1152   0.284E-03 0.133E-05
CGA:   7    -0.148191678872E+03   -0.10416E-03   -0.10413E-03  1152   0.902E-04 0.599E-06
CGA:   8    -0.148191712333E+03   -0.33460E-04   -0.33448E-04  1152   0.220E-04 0.277E-06
CGA:   9    -0.148191720423E+03   -0.80904E-05   -0.80850E-05  1152   0.462E-05 0.139E-06
CGA:  10    -0.148191722140E+03   -0.17168E-05   -0.17164E-05  1152   0.103E-05 0.137E-07
  67 F= -.14819172E+03 E0= -.14819172E+03  d E =-.529301E-02
       N       E                     dE             d eps       ncg     rms          ort
SDA:   1    -0.148185936286E+03    0.57841E-02    0.00000E+00  1152   0.145E-01 0.000E+00
CGA:   2    -0.148191343041E+03   -0.54068E-02   -0.54068E-02  1152   0.374E-02-0.879E-06
CGA:   3    -0.148192272607E+03   -0.92957E-03   -0.92949E-03  1152   0.602E-03-0.349E-06
CGA:   4    -0.148192422822E+03   -0.15022E-03   -0.15019E-03  1152   0.109E-03-0.306E-06
CGA:   5    -0.148192454298E+03   -0.31476E-04   -0.31490E-04  1152   0.233E-04 0.359E-06
CGA:   6    -0.148192462213E+03   -0.79143E-05   -0.79122E-05  1152   0.699E-05 0.194E-06
CGA:   7    -0.148192464850E+03   -0.26378E-05   -0.26366E-05  1152   0.227E-05 0.233E-07
CGA:   8    -0.148192465682E+03   -0.83177E-06   -0.83057E-06  1152   0.535E-06 0.399E-07
  68 F= -.14819247E+03 E0= -.14819247E+03  d E =-.743542E-03
       N       E                     dE             d eps       ncg     rms          ort
SDA:   1    -0.148135079330E+03    0.57386E-01    0.00000E+00  1152   0.130E+00 0.000E+00
CGA:   2    -0.148183687902E+03   -0.48609E-01   -0.48608E-01  1152   0.337E-01 0.132E-04
CGA:   3    -0.148192053030E+03   -0.83651E-02   -0.83641E-02  1152   0.542E-02-0.187E-05
CGA:   4    -0.148193404759E+03   -0.13517E-02   -0.13517E-02  1152   0.981E-03-0.701E-06
CGA:   5    -0.148193689177E+03   -0.28442E-03   -0.28446E-03  1152   0.213E-03 0.107E-05
CGA:   6    -0.148193761469E+03   -0.72292E-04   -0.72284E-04  1152   0.640E-04 0.627E-06
CGA:   7    -0.148193785333E+03   -0.23863E-04   -0.23859E-04  1152   0.206E-04 0.895E-07
CGA:   8    -0.148193792931E+03   -0.75987E-05   -0.75940E-05  1152   0.491E-05 0.114E-06
CGA:   9    -0.148193794725E+03   -0.17935E-05   -0.17913E-05  1152   0.103E-05 0.690E-07
  69 F= -.14819379E+03 E0= -.14819379E+03  d E =-.207259E-02
       N       E                     dE             d eps       ncg     rms          ort
SDA:   1    -0.148180551078E+03    0.13242E-01    0.00000E+00  1152   0.297E-01 0.000E+00
CGA:   2    -0.148191651459E+03   -0.11100E-01   -0.11100E-01  1152   0.767E-02 0.903E-08
CGA:   3    -0.148193555030E+03   -0.19036E-02   -0.19034E-02  1152   0.124E-02-0.717E-06
CGA:   4    -0.148193862723E+03   -0.30769E-03   -0.30766E-03  1152   0.225E-03-0.452E-06
CGA:   5    -0.148193927472E+03   -0.64749E-04   -0.64767E-04  1152   0.485E-04 0.463E-06
CGA:   6    -0.148193943918E+03   -0.16446E-04   -0.16443E-04  1152   0.145E-04 0.264E-06
CGA:   7    -0.148193949356E+03   -0.54384E-05   -0.54371E-05  1152   0.470E-05 0.261E-07
CGA:   8    -0.148193951084E+03   -0.17272E-05   -0.17252E-05  1152   0.111E-05 0.508E-07
  70 F= -.14819395E+03 E0= -.14819395E+03  d E =-.222894E-02
       N       E                     dE             d eps       ncg     rms          ort
SDA:   1    -0.148193201234E+03    0.74812E-03    0.00000E+00  1152   0.304E-02 0.000E+00
CGA:   2    -0.148194321371E+03   -0.11201E-02   -0.11201E-02  1152   0.914E-03 0.214E-05
CGA:   3    -0.148194551100E+03   -0.22973E-03   -0.22963E-03  1152   0.136E-03-0.136E-05
CGA:   4    -0.148194586413E+03   -0.35313E-04   -0.35292E-04  1152   0.262E-04-0.304E-06
CGA:   5    -0.148194594087E+03   -0.76738E-05   -0.76716E-05  1152   0.630E-05-0.701E-07
CGA:   6    -0.148194596171E+03   -0.20842E-05   -0.20827E-05  1152   0.187E-05 0.197E-06
CGA:   7    -0.148194596909E+03   -0.73795E-06   -0.73547E-06  1152   0.615E-06 0.458E-07
CGA:   8    -0.148194597155E+03   -0.24552E-06   -0.24661E-06  1152   0.164E-06-0.165E-07
  71 F= -.14819460E+03 E0= -.14819460E+03  d E =-.646071E-03
       N       E                     dE             d eps       ncg     rms          ort
SDA:   1    -0.148183508890E+03    0.11088E-01    0.00000E+00  1152   0.274E-01 0.000E+00
CGA:   2    -0.148193578545E+03   -0.10070E-01   -0.10070E-01  1152   0.825E-02 0.889E-06
CGA:   3    -0.148195647016E+03   -0.20685E-02   -0.20684E-02  1152   0.123E-02-0.375E-05
CGA:   4    -0.148195965037E+03   -0.31802E-03   -0.31794E-03  1152   0.238E-03-0.969E-06
CGA:   5    -0.148196034553E+03   -0.69516E-04   -0.69509E-04  1152   0.564E-04-0.201E-06
CGA:   6    -0.148196053698E+03   -0.19145E-04   -0.19136E-04  1152   0.174E-04 0.618E-06
CGA:   7    -0.148196060430E+03   -0.67315E-05   -0.67231E-05  1152   0.562E-05 0.143E-06
CGA:   8    -0.148196062587E+03   -0.21572E-05   -0.21600E-05  1152   0.142E-05-0.535E-07
  72 F= -.14819606E+03 E0= -.14819606E+03  d E =-.211150E-02
       N       E                     dE             d eps       ncg     rms          ort
SDA:   1    -0.148146735755E+03    0.49325E-01    0.00000E+00  1152   0.109E+00 0.000E+00
CGA:   2    -0.148186921135E+03   -0.40185E-01   -0.40188E-01  1152   0.331E-01-0.386E-04
CGA:   3    -0.148195209583E+03   -0.82884E-02   -0.82902E-02  1152   0.491E-02-0.525E-05
CGA:   4    -0.148196485634E+03   -0.12761E-02   -0.12758E-02  1152   0.952E-03-0.228E-05
CGA:   5    -0.148196764810E+03   -0.27918E-03   -0.27916E-03  1152   0.228E-03-0.454E-06
CGA:   6    -0.148196842708E+03   -0.77898E-04   -0.77875E-04  1152   0.714E-04 0.128E-05
CGA:   7    -0.148196870166E+03   -0.27458E-04   -0.27441E-04  1152   0.229E-04 0.297E-06
CGA:   8    -0.148196878879E+03   -0.87130E-05   -0.87191E-05  1152   0.571E-05-0.125E-06
CGA:   9    -0.148196880932E+03   -0.20528E-05   -0.20520E-05  1152   0.120E-05 0.280E-07
  73 F= -.14819688E+03 E0= -.14819688E+03  d E =-.292985E-02
       N       E                     dE             d eps       ncg     rms          ort
SDA:   1    -0.148196169370E+03    0.70951E-03    0.00000E+00  1152   0.262E-02 0.000E+00
CGA:   2    -0.148197230033E+03   -0.10607E-02   -0.10606E-02  1152   0.680E-03 0.502E-06
CGA:   3    -0.148197396505E+03   -0.16647E-03   -0.16635E-03  1152   0.106E-03-0.138E-05
CGA:   4    -0.148197422844E+03   -0.26339E-04   -0.26338E-04  1152   0.211E-04 0.373E-08
CGA:   5    -0.148197428783E+03   -0.59391E-05   -0.59372E-05  1152   0.481E-05-0.355E-07
CGA:   6    -0.148197430389E+03   -0.16055E-05   -0.16050E-05  1152   0.142E-05 0.654E-07
CGA:   7    -0.148197430918E+03   -0.52974E-06   -0.52870E-06  1152   0.467E-06 0.277E-07
CGA:   8    -0.148197431101E+03   -0.18245E-06   -0.18335E-06  1152   0.129E-06-0.126E-07
  74 F= -.14819743E+03 E0= -.14819743E+03  d E =-.550169E-03
       N       E                     dE             d eps       ncg     rms          ort
SDA:   1    -0.148187278110E+03    0.10153E-01    0.00000E+00  1152   0.235E-01 0.000E+00
CGA:   2    -0.148196811261E+03   -0.95332E-02   -0.95328E-02  1152   0.612E-02 0.292E-05
CGA:   3    -0.148198309355E+03   -0.14981E-02   -0.14978E-02  1152   0.949E-03-0.425E-05
CGA:   4    -0.148198546914E+03   -0.23756E-03   -0.23755E-03  1152   0.188E-03-0.131E-08
CGA:   5    -0.148198600279E+03   -0.53365E-04   -0.53362E-04  1152   0.430E-04-0.811E-07
CGA:   6    -0.148198614662E+03   -0.14383E-04   -0.14381E-04  1152   0.129E-04 0.219E-06
CGA:   7    -0.148198619415E+03   -0.47528E-05   -0.47487E-05  1152   0.419E-05 0.986E-07
CGA:   8    -0.148198620993E+03   -0.15783E-05   -0.15798E-05  1152   0.108E-05-0.323E-07
  75 F= -.14819862E+03 E0= -.14819862E+03  d E =-.174006E-02
       N       E                     dE             d eps       ncg     rms          ort
SDA:   1    -0.148153678849E+03    0.44941E-01    0.00000E+00  1152   0.939E-01 0.000E+00
CGA:   2    -0.148191656936E+03   -0.37978E-01   -0.37977E-01  1152   0.246E-01 0.561E-05
CGA:   3    -0.148197667813E+03   -0.60109E-02   -0.60111E-02  1152   0.381E-02-0.936E-05
CGA:   4    -0.148198625028E+03   -0.95722E-03   -0.95712E-03  1152   0.757E-03-0.300E-06
CGA:   5    -0.148198840856E+03   -0.21583E-03   -0.21582E-03  1152   0.176E-03-0.189E-06
CGA:   6    -0.148198899905E+03   -0.59049E-04   -0.59043E-04  1152   0.532E-04 0.515E-06
CGA:   7    -0.148198919596E+03   -0.19691E-04   -0.19680E-04  1152   0.173E-04 0.235E-06
CGA:   8    -0.148198926063E+03   -0.64670E-05   -0.64697E-05  1152   0.440E-05-0.626E-07
CGA:   9    -0.148198927654E+03   -0.15917E-05   -0.15909E-05  1152   0.957E-06 0.238E-07
  76 F= -.14819893E+03 E0= -.14819893E+03  d E =-.204672E-02
       N       E                     dE             d eps       ncg     rms          ort
SDA:   1    -0.148192142421E+03    0.67836E-02    0.00000E+00  1152   0.145E-01 0.000E+00
CGA:   2    -0.148198021707E+03   -0.58793E-02   -0.58794E-02  1152   0.378E-02-0.622E-06
CGA:   3    -0.148198947419E+03   -0.92571E-03   -0.92599E-03  1152   0.583E-03 0.355E-05
CGA:   4    -0.148199093489E+03   -0.14607E-03   -0.14608E-03  1152   0.114E-03 0.116E-06
CGA:   5    -0.148199125845E+03   -0.32357E-04   -0.32363E-04  1152   0.255E-04 0.146E-06
CGA:   6    -0.148199134412E+03   -0.85662E-05   -0.85674E-05  1152   0.765E-05-0.120E-06
CGA:   7    -0.148199137223E+03   -0.28116E-05   -0.28141E-05  1152   0.251E-05-0.588E-07
CGA:   8    -0.148199138129E+03   -0.90556E-06   -0.90442E-06  1152   0.613E-06 0.286E-07
  77 F= -.14819914E+03 E0= -.14819914E+03  d E =-.225720E-02
       N       E                     dE             d eps       ncg     rms          ort
SDA:   1    -0.148199021582E+03    0.11564E-03    0.00000E+00  1152   0.151E-02 0.000E+00
CGA:   2    -0.148199528205E+03   -0.50662E-03   -0.50663E-03  1152   0.522E-03-0.284E-05
CGA:   3    -0.148199669409E+03   -0.14120E-03   -0.14123E-03  1152   0.768E-04 0.485E-06
CGA:   4    -0.148199689168E+03   -0.19759E-04   -0.19782E-04  1152   0.155E-04 0.320E-06
CGA:   5    -0.148199693977E+03   -0.48092E-05   -0.48117E-05  1152   0.409E-05 0.155E-06
CGA:   6    -0.148199695531E+03   -0.15543E-05   -0.15641E-05  1152   0.158E-05-0.186E-06
CGA:   7    -0.148199696085E+03   -0.55369E-06   -0.55508E-06  1152   0.423E-06-0.307E-07
CGA:   8    -0.148199696217E+03   -0.13181E-06   -0.13220E-06  1152   0.843E-07 0.440E-07
  78 F= -.14819970E+03 E0= -.14819970E+03  d E =-.558088E-03
       N       E                     dE             d eps       ncg     rms          ort
SDA:   1    -0.148195075945E+03    0.46201E-02    0.00000E+00  1152   0.118E-01 0.000E+00
CGA:   2    -0.148199040438E+03   -0.39645E-02   -0.39645E-02  1152   0.408E-02-0.589E-05
CGA:   3    -0.148200146992E+03   -0.11066E-02   -0.11066E-02  1152   0.603E-03 0.121E-05
CGA:   4    -0.148200302413E+03   -0.15542E-03   -0.15548E-03  1152   0.122E-03 0.875E-06
CGA:   5    -0.148200340518E+03   -0.38105E-04   -0.38111E-04  1152   0.326E-04 0.444E-06
CGA:   6    -0.148200352468E+03   -0.11950E-04   -0.11972E-04  1152   0.118E-04-0.520E-06
CGA:   7    -0.148200356775E+03   -0.43077E-05   -0.43124E-05  1152   0.325E-05-0.961E-07
CGA:   8    -0.148200357889E+03   -0.11132E-05   -0.11111E-05  1152   0.686E-06 0.129E-06
  79 F= -.14820036E+03 E0= -.14820036E+03  d E =-.121976E-02
       N       E                     dE             d eps       ncg     rms          ort
SDA:   1    -0.148200006954E+03    0.34982E-03    0.00000E+00  1152   0.143E-02 0.000E+00
CGA:   2    -0.148200564203E+03   -0.55725E-03   -0.55724E-03  1152   0.406E-03 0.211E-06
CGA:   3    -0.148200661430E+03   -0.97227E-04   -0.97274E-04  1152   0.639E-04 0.537E-06
CGA:   4    -0.148200677921E+03   -0.16491E-04   -0.16500E-04  1152   0.111E-04 0.133E-06
CGA:   5    -0.148200681248E+03   -0.33270E-05   -0.33290E-05  1152   0.267E-05 0.837E-07
CGA:   6    -0.148200682171E+03   -0.92298E-06   -0.92216E-06  1152   0.848E-06 0.387E-07
CGA:   7    -0.148200682484E+03   -0.31355E-06   -0.31192E-06  1152   0.247E-06 0.393E-07
CGA:   8    -0.148200682574E+03   -0.89398E-07   -0.88957E-07  1152   0.556E-07 0.205E-07
  80 F= -.14820068E+03 E0= -.14820068E+03  d E =-.324685E-03
       N       E                     dE             d eps       ncg     rms          ort
SDA:   1    -0.148198200384E+03    0.24821E-02    0.00000E+00  1152   0.582E-02 0.000E+00
CGA:   2    -0.148200461203E+03   -0.22608E-02   -0.22608E-02  1152   0.165E-02 0.773E-06
CGA:   3    -0.148200855837E+03   -0.39463E-03   -0.39471E-03  1152   0.260E-03 0.104E-05
CGA:   4    -0.148200922886E+03   -0.67049E-04   -0.67064E-04  1152   0.451E-04 0.214E-06
CGA:   5    -0.148200936455E+03   -0.13569E-04   -0.13573E-04  1152   0.109E-04 0.173E-06
CGA:   6    -0.148200940220E+03   -0.37654E-05   -0.37636E-05  1152   0.346E-05 0.757E-07
CGA:   7    -0.148200941510E+03   -0.12901E-05   -0.12864E-05  1152   0.103E-05 0.810E-07
CGA:   8    -0.148200941885E+03   -0.37470E-06   -0.37360E-06  1152   0.235E-06 0.395E-07
  81 F= -.14820094E+03 E0= -.14820094E+03  d E =-.583996E-03
       N       E                     dE             d eps       ncg     rms          ort
SDA:   1    -0.148199821657E+03    0.11199E-02    0.00000E+00  1152   0.322E-02 0.000E+00
CGA:   2    -0.148200993333E+03   -0.11717E-02   -0.11717E-02  1152   0.984E-03-0.182E-05
CGA:   3    -0.148201220597E+03   -0.22726E-03   -0.22734E-03  1152   0.137E-03 0.979E-06
CGA:   4    -0.148201256438E+03   -0.35841E-04   -0.35856E-04  1152   0.225E-04 0.228E-06
CGA:   5    -0.148201262694E+03   -0.62554E-05   -0.62693E-05  1152   0.450E-05 0.314E-06
CGA:   6    -0.148201264189E+03   -0.14949E-05   -0.14950E-05  1152   0.125E-05-0.128E-07
CGA:   7    -0.148201264668E+03   -0.47937E-06   -0.47998E-06  1152   0.382E-06-0.103E-07
CGA:   8    -0.148201264797E+03   -0.12920E-06   -0.12865E-06  1152   0.835E-07 0.391E-07
  82 F= -.14820126E+03 E0= -.14820126E+03  d E =-.322912E-03
       N       E                     dE             d eps       ncg     rms          ort
SDA:   1    -0.148194094856E+03    0.71698E-02    0.00000E+00  1152   0.166E-01 0.000E+00
CGA:   2    -0.148200159873E+03   -0.60650E-02   -0.60649E-02  1152   0.508E-02-0.555E-06
CGA:   3    -0.148201334264E+03   -0.11744E-02   -0.11744E-02  1152   0.712E-03 0.225E-05
CGA:   4    -0.148201519961E+03   -0.18570E-03   -0.18573E-03  1152   0.117E-03 0.513E-06
CGA:   5    -0.148201552761E+03   -0.32801E-04   -0.32830E-04  1152   0.236E-04 0.723E-06
CGA:   6    -0.148201560485E+03   -0.77232E-05   -0.77236E-05  1152   0.644E-05-0.223E-07
CGA:   7    -0.148201562949E+03   -0.24647E-05   -0.24660E-05  1152   0.195E-05-0.182E-07
CGA:   8    -0.148201563657E+03   -0.70722E-06   -0.70338E-06  1152   0.453E-06 0.975E-07
  83 F= -.14820156E+03 E0= -.14820156E+03  d E =-.621772E-03
       N       E                     dE             d eps       ncg     rms          ort
SDA:   1    -0.148199560147E+03    0.20028E-02    0.00000E+00  1152   0.516E-02 0.000E+00
CGA:   2    -0.148201492610E+03   -0.19325E-02   -0.19325E-02  1152   0.141E-02-0.147E-05
CGA:   3    -0.148201817898E+03   -0.32529E-03   -0.32526E-03  1152   0.211E-03-0.199E-06
CGA:   4    -0.148201871970E+03   -0.54072E-04   -0.54066E-04  1152   0.331E-04-0.972E-07
CGA:   5    -0.148201881564E+03   -0.95945E-05   -0.95950E-05  1152   0.651E-05 0.204E-07
CGA:   6    -0.148201883729E+03   -0.21646E-05   -0.21652E-05  1152   0.181E-05-0.446E-07
CGA:   7    -0.148201884407E+03   -0.67834E-06   -0.67923E-06  1152   0.549E-06-0.146E-07
CGA:   8    -0.148201884605E+03   -0.19787E-06   -0.19707E-06  1152   0.124E-06 0.196E-07
  84 F= -.14820188E+03 E0= -.14820188E+03  d E =-.320949E-03
       N       E                     dE             d eps       ncg     rms          ort
SDA:   1    -0.148196610849E+03    0.52736E-02    0.00000E+00  1152   0.121E-01 0.000E+00
CGA:   2    -0.148201148432E+03   -0.45376E-02   -0.45377E-02  1152   0.330E-02-0.184E-05
CGA:   3    -0.148201913129E+03   -0.76470E-03   -0.76462E-03  1152   0.496E-03-0.311E-06
CGA:   4    -0.148202040257E+03   -0.12713E-03   -0.12712E-03  1152   0.780E-04-0.148E-06
CGA:   5    -0.148202062878E+03   -0.22621E-04   -0.22622E-04  1152   0.153E-04 0.320E-07
CGA:   6    -0.148202067956E+03   -0.50783E-05   -0.50792E-05  1152   0.424E-05-0.667E-07
CGA:   7    -0.148202069547E+03   -0.15905E-05   -0.15917E-05  1152   0.128E-05-0.206E-07
CGA:   8    -0.148202070017E+03   -0.47026E-06   -0.46900E-06  1152   0.296E-06 0.288E-07
  85 F= -.14820207E+03 E0= -.14820207E+03  d E =-.506361E-03
       N       E                     dE             d eps       ncg     rms          ort
SDA:   1    -0.148200395961E+03    0.16736E-02    0.00000E+00  1152   0.436E-02 0.000E+00
CGA:   2    -0.148202038517E+03   -0.16426E-02   -0.16425E-02  1152   0.116E-02 0.705E-06
CGA:   3    -0.148202307075E+03   -0.26856E-03   -0.26847E-03  1152   0.178E-03-0.101E-05
CGA:   4    -0.148202352806E+03   -0.45731E-04   -0.45721E-04  1152   0.288E-04-0.136E-06
CGA:   5    -0.148202361144E+03   -0.83386E-05   -0.83346E-05  1152   0.602E-05-0.118E-06
CGA:   6    -0.148202363105E+03   -0.19608E-05   -0.19603E-05  1152   0.166E-05 0.336E-07
CGA:   7    -0.148202363733E+03   -0.62750E-06   -0.62647E-06  1152   0.497E-06 0.225E-07
CGA:   8    -0.148202363920E+03   -0.18716E-06   -0.18685E-06  1152   0.118E-06 0.809E-08
  86 F= -.14820236E+03 E0= -.14820236E+03  d E =-.293903E-03
[...]
SDA:   1    -0.148292767460E+03    0.11650E-03    0.00000E+00  1152   0.276E-03 0.000E+00
CGA:   2    -0.148292871060E+03   -0.10360E-03   -0.10360E-03  1152   0.770E-04-0.244E-06
CGA:   3    -0.148292890055E+03   -0.18995E-04   -0.19004E-04  1152   0.123E-04 0.748E-07
CGA:   4    -0.148292893257E+03   -0.32026E-05   -0.32030E-05  1152   0.232E-05 0.490E-08
CGA:   5    -0.148292893977E+03   -0.71939E-06   -0.71597E-06  1152   0.582E-06-0.496E-07
CGA:   6    -0.148292894177E+03   -0.20016E-06   -0.19984E-06  1152   0.184E-06-0.113E-07
CGA:   7    -0.148292894239E+03   -0.61967E-07   -0.62268E-07  1152   0.502E-07 0.629E-08
CGA:   8    -0.148292894260E+03   -0.20510E-07   -0.20631E-07  1152   0.143E-07-0.326E-08
 400 F= -.14829289E+03 E0= -.14829289E+03  d E =-.140815E-04
       N       E                     dE             d eps       ncg     rms          ort
SDA:   1    -0.148292403499E+03    0.49074E-03    0.00000E+00  1152   0.110E-02 0.000E+00
CGA:   2    -0.148292817584E+03   -0.41408E-03   -0.41409E-03  1152   0.308E-03-0.487E-06
CGA:   3    -0.148292893525E+03   -0.75942E-04   -0.75959E-04  1152   0.497E-04 0.159E-06
CGA:   4    -0.148292906381E+03   -0.12856E-04   -0.12856E-04  1152   0.945E-05 0.122E-07
CGA:   5    -0.148292909265E+03   -0.28836E-05   -0.28777E-05  1152   0.232E-05-0.101E-06
CGA:   6    -0.148292910068E+03   -0.80328E-06   -0.80291E-06  1152   0.741E-06-0.252E-07
CGA:   7    -0.148292910326E+03   -0.25857E-06   -0.25859E-06  1152   0.211E-06 0.132E-07
CGA:   8    -0.148292910408E+03   -0.81582E-07   -0.81618E-07  1152   0.537E-07-0.545E-08
 401 F= -.14829291E+03 E0= -.14829291E+03  d E =-.302301E-04
       N       E                     dE             d eps       ncg     rms          ort
SDA:   1    -0.148290897681E+03    0.20126E-02    0.00000E+00  1152   0.441E-02 0.000E+00
CGA:   2    -0.148292553422E+03   -0.16557E-02   -0.16558E-02  1152   0.123E-02-0.951E-06
CGA:   3    -0.148292857304E+03   -0.30388E-03   -0.30392E-03  1152   0.199E-03 0.346E-06
CGA:   4    -0.148292908794E+03   -0.51490E-04   -0.51491E-04  1152   0.378E-04 0.273E-07
CGA:   5    -0.148292920278E+03   -0.11484E-04   -0.11473E-04  1152   0.920E-05-0.205E-06
CGA:   6    -0.148292923474E+03   -0.31962E-05   -0.31962E-05  1152   0.294E-05-0.497E-07
CGA:   7    -0.148292924519E+03   -0.10449E-05   -0.10446E-05  1152   0.856E-06 0.274E-07
CGA:   8    -0.148292924842E+03   -0.32287E-06   -0.32302E-06  1152   0.210E-06-0.117E-07
 402 F= -.14829292E+03 E0= -.14829292E+03  d E =-.446637E-04
       N       E                     dE             d eps       ncg     rms          ort
SDA:   1    -0.148292839405E+03    0.85114E-04    0.00000E+00  1152   0.204E-03 0.000E+00
CGA:   2    -0.148292916380E+03   -0.76975E-04   -0.76971E-04  1152   0.528E-04 0.190E-06
CGA:   3    -0.148292929892E+03   -0.13511E-04   -0.13514E-04  1152   0.866E-05 0.287E-07
CGA:   4    -0.148292932109E+03   -0.22168E-05   -0.22160E-05  1152   0.167E-05-0.739E-08
CGA:   5    -0.148292932624E+03   -0.51544E-06   -0.51366E-06  1152   0.437E-06-0.448E-07
CGA:   6    -0.148292932766E+03   -0.14238E-06   -0.14262E-06  1152   0.126E-06 0.133E-07
CGA:   7    -0.148292932813E+03   -0.46232E-07   -0.46085E-07  1152   0.375E-07 0.764E-08
CGA:   8    -0.148292932830E+03   -0.16905E-07   -0.17781E-07  1152   0.146E-07-0.742E-08
 403 F= -.14829293E+03 E0= -.14829293E+03  d E =-.798786E-05
       N       E                     dE             d eps       ncg     rms          ort
SDA:   1    -0.148292103225E+03    0.82959E-03    0.00000E+00  1152   0.184E-02 0.000E+00
CGA:   2    -0.148292796282E+03   -0.69306E-03   -0.69305E-03  1152   0.477E-03 0.527E-06
CGA:   3    -0.148292917883E+03   -0.12160E-03   -0.12161E-03  1152   0.792E-04 0.107E-06
CGA:   4    -0.148292937865E+03   -0.19983E-04   -0.19981E-04  1152   0.155E-04-0.185E-07
CGA:   5    -0.148292942515E+03   -0.46498E-05   -0.46439E-05  1152   0.374E-05-0.134E-06
CGA:   6    -0.148292943809E+03   -0.12936E-05   -0.12935E-05  1152   0.114E-05 0.364E-07
CGA:   7    -0.148292944230E+03   -0.42148E-06   -0.42093E-06  1152   0.341E-06 0.226E-07
CGA:   8    -0.148292944365E+03   -0.13428E-06   -0.13528E-06  1152   0.917E-07-0.200E-07
 404 F= -.14829294E+03 E0= -.14829294E+03  d E =-.195229E-04
       N       E                     dE             d eps       ncg     rms          ort
SDA:   1    -0.148292925655E+03    0.18575E-04    0.00000E+00  1152   0.413E-04 0.000E+00
CGA:   2    -0.148292941232E+03   -0.15577E-04   -0.15574E-04  1152   0.107E-04 0.897E-07
CGA:   3    -0.148292943978E+03   -0.27452E-05   -0.27464E-05  1152   0.175E-05 0.130E-07
CGA:   4    -0.148292944428E+03   -0.45026E-06   -0.44980E-06  1152   0.336E-06-0.569E-08
CGA:   5    -0.148292944534E+03   -0.10631E-06   -0.10592E-06  1152   0.959E-07-0.209E-07
CGA:   6    -0.148292944562E+03   -0.28093E-07   -0.28160E-07  1152   0.253E-07 0.549E-08
CGA:   7    -0.148292944570E+03   -0.81277E-08   -0.84548E-08  1152   0.720E-08 0.417E-08
CGA:   8    -0.148292944574E+03   -0.36680E-08   -0.53869E-08  1152   0.864E-08-0.525E-08
 405 F= -.14829294E+03 E0= -.14829294E+03  d E =-.197324E-04
       N       E                     dE             d eps       ncg     rms          ort
SDA:   1    -0.148292909967E+03    0.34604E-04    0.00000E+00  1152   0.858E-04 0.000E+00
CGA:   2    -0.148292941859E+03   -0.31893E-04   -0.31900E-04  1152   0.227E-04-0.283E-06
CGA:   3    -0.148292947569E+03   -0.57104E-05   -0.57232E-05  1152   0.359E-05 0.139E-06
CGA:   4    -0.148292948482E+03   -0.91290E-06   -0.91337E-06  1152   0.701E-06 0.445E-08
CGA:   5    -0.148292948695E+03   -0.21300E-06   -0.21224E-06  1152   0.167E-06-0.196E-07
CGA:   6    -0.148292948755E+03   -0.59272E-07   -0.59720E-07  1152   0.552E-07-0.110E-07
CGA:   7    -0.148292948772E+03   -0.17738E-07   -0.17820E-07  1152   0.148E-07 0.142E-08
CGA:   8    -0.148292948779E+03   -0.62935E-08   -0.63763E-08  1152   0.503E-08-0.228E-08
 406 F= -.14829295E+03 E0= -.14829295E+03  d E =-.420458E-05
       N       E                     dE             d eps       ncg     rms          ort
SDA:   1    -0.148292609319E+03    0.33945E-03    0.00000E+00  1152   0.772E-03 0.000E+00
CGA:   2    -0.148292895695E+03   -0.28638E-03   -0.28639E-03  1152   0.204E-03-0.797E-06
CGA:   3    -0.148292947375E+03   -0.51679E-04   -0.51720E-04  1152   0.326E-04 0.407E-06
CGA:   4    -0.148292955626E+03   -0.82514E-05   -0.82524E-05  1152   0.633E-05 0.119E-07
CGA:   5    -0.148292957499E+03   -0.18727E-05   -0.18698E-05  1152   0.145E-05-0.562E-07
CGA:   6    -0.148292958010E+03   -0.51141E-06   -0.51175E-06  1152   0.454E-06-0.306E-07
CGA:   7    -0.148292958172E+03   -0.16155E-06   -0.16186E-06  1152   0.135E-06 0.322E-08
CGA:   8    -0.148292958223E+03   -0.51492E-07   -0.51600E-07  1152   0.350E-07-0.576E-08
 407 F= -.14829296E+03 E0= -.14829296E+03  d E =-.136491E-04
       N       E                     dE             d eps       ncg     rms          ort
SDA:   1    -0.148291567960E+03    0.13902E-02    0.00000E+00  1152   0.309E-02 0.000E+00
CGA:   2    -0.148292713266E+03   -0.11453E-02   -0.11453E-02  1152   0.813E-03-0.152E-05
CGA:   3    -0.148292920121E+03   -0.20685E-03   -0.20693E-03  1152   0.131E-03 0.835E-06
CGA:   4    -0.148292953145E+03   -0.33024E-04   -0.33027E-04  1152   0.253E-04 0.262E-07
CGA:   5    -0.148292960604E+03   -0.74584E-05   -0.74529E-05  1152   0.576E-05-0.113E-06
CGA:   6    -0.148292962629E+03   -0.20255E-05   -0.20262E-05  1152   0.178E-05-0.588E-07
CGA:   7    -0.148292963279E+03   -0.64980E-06   -0.64973E-06  1152   0.542E-06 0.712E-08
CGA:   8    -0.148292963481E+03   -0.20216E-06   -0.20256E-06  1152   0.134E-06-0.117E-07
 408 F= -.14829296E+03 E0= -.14829296E+03  d E =-.189070E-04
       N       E                     dE             d eps       ncg     rms          ort
SDA:   1    -0.148292890395E+03    0.72884E-04    0.00000E+00  1152   0.170E-03 0.000E+00
CGA:   2    -0.148292954168E+03   -0.63773E-04   -0.63779E-04  1152   0.451E-04-0.215E-06
CGA:   3    -0.148292965422E+03   -0.11254E-04   -0.11268E-04  1152   0.738E-05 0.141E-06
CGA:   4    -0.148292967309E+03   -0.18870E-05   -0.18884E-05  1152   0.141E-05 0.137E-07
CGA:   5    -0.148292967744E+03   -0.43528E-06   -0.43414E-06  1152   0.358E-06-0.293E-07
CGA:   6    -0.148292967871E+03   -0.12639E-06   -0.12688E-06  1152   0.120E-06-0.173E-07
CGA:   7    -0.148292967909E+03   -0.38583E-07   -0.38592E-07  1152   0.319E-07 0.494E-08
CGA:   8    -0.148292967921E+03   -0.11914E-07   -0.11903E-07  1152   0.787E-08 0.908E-09
 409 F= -.14829297E+03 E0= -.14829297E+03  d E =-.444022E-05
       N       E                     dE             d eps       ncg     rms          ort
SDA:   1    -0.148292519360E+03    0.44855E-03    0.00000E+00  1152   0.995E-03 0.000E+00
CGA:   2    -0.148292891799E+03   -0.37244E-03   -0.37245E-03  1152   0.262E-03-0.510E-06
CGA:   3    -0.148292957575E+03   -0.65776E-04   -0.65811E-04  1152   0.435E-04 0.346E-06
CGA:   4    -0.148292968613E+03   -0.11038E-04   -0.11041E-04  1152   0.841E-05 0.275E-07
CGA:   5    -0.148292971157E+03   -0.25440E-05   -0.25411E-05  1152   0.201E-05-0.682E-07
CGA:   6    -0.148292971867E+03   -0.70938E-06   -0.70994E-06  1152   0.645E-06-0.417E-07
CGA:   7    -0.148292972091E+03   -0.22435E-06   -0.22445E-06  1152   0.184E-06 0.109E-07
CGA:   8    -0.148292972159E+03   -0.68065E-07   -0.68147E-07  1152   0.446E-07 0.513E-09
 410 F= -.14829297E+03 E0= -.14829297E+03  d E =-.867817E-05
       N       E                     dE             d eps       ncg     rms          ort
SDA:   1    -0.148292959686E+03    0.12405E-04    0.00000E+00  1152   0.366E-04 0.000E+00
CGA:   2    -0.148292973245E+03   -0.13559E-04   -0.13557E-04  1152   0.969E-05 0.645E-07
CGA:   3    -0.148292975750E+03   -0.25051E-05   -0.25017E-05  1152   0.167E-05-0.357E-07
CGA:   4    -0.148292976183E+03   -0.43301E-06   -0.43280E-06  1152   0.321E-06-0.173E-08
CGA:   5    -0.148292976289E+03   -0.10638E-06   -0.10619E-06  1152   0.997E-07-0.242E-07
CGA:   6    -0.148292976319E+03   -0.30028E-07   -0.30120E-07  1152   0.277E-07 0.222E-08
CGA:   7    -0.148292976328E+03   -0.92432E-08   -0.92420E-08  1152   0.741E-08 0.304E-08
CGA:   8    -0.148292976332E+03   -0.36787E-08   -0.37220E-08  1152   0.323E-08-0.165E-08
 411 F= -.14829298E+03 E0= -.14829298E+03  d E =-.417300E-05
       N       E                     dE             d eps       ncg     rms          ort
SDA:   1    -0.148292836084E+03    0.14024E-03    0.00000E+00  1152   0.329E-03 0.000E+00
CGA:   2    -0.148292958375E+03   -0.12229E-03   -0.12229E-03  1152   0.872E-04 0.182E-06
CGA:   3    -0.148292980757E+03   -0.22381E-04   -0.22372E-04  1152   0.152E-04-0.101E-06
CGA:   4    -0.148292984641E+03   -0.38841E-05   -0.38833E-05  1152   0.297E-05-0.842E-08
CGA:   5    -0.148292985577E+03   -0.93596E-06   -0.93438E-06  1152   0.790E-06-0.687E-07
CGA:   6    -0.148292985847E+03   -0.27009E-06   -0.26994E-06  1152   0.243E-06 0.432E-08
CGA:   7    -0.148292985935E+03   -0.87809E-07   -0.87722E-07  1152   0.682E-07 0.749E-08
CGA:   8    -0.148292985962E+03   -0.27616E-07   -0.27771E-07  1152   0.192E-07-0.580E-08
 412 F= -.14829299E+03 E0= -.14829299E+03  d E =-.138030E-04
       N       E                     dE             d eps       ncg     rms          ort
SDA:   1    -0.148292393080E+03    0.59285E-03    0.00000E+00  1152   0.132E-02 0.000E+00
CGA:   2    -0.148292882293E+03   -0.48921E-03   -0.48920E-03  1152   0.349E-03 0.367E-06
CGA:   3    -0.148292971752E+03   -0.89460E-04   -0.89444E-04  1152   0.606E-04-0.196E-06
CGA:   4    -0.148292987285E+03   -0.15532E-04   -0.15531E-04  1152   0.119E-04-0.180E-07
CGA:   5    -0.148292990980E+03   -0.36956E-05   -0.36920E-05  1152   0.310E-05-0.135E-06
CGA:   6    -0.148292992064E+03   -0.10839E-05   -0.10837E-05  1152   0.983E-06 0.710E-08
CGA:   7    -0.148292992422E+03   -0.35816E-06   -0.35791E-06  1152   0.280E-06 0.149E-07
CGA:   8    -0.148292992529E+03   -0.10615E-06   -0.10659E-06  1152   0.696E-07-0.105E-07
 413 F= -.14829299E+03 E0= -.14829299E+03  d E =-.203694E-04
       N       E                     dE             d eps       ncg     rms          ort
SDA:   1    -0.148292980893E+03    0.11529E-04    0.00000E+00  1152   0.339E-04 0.000E+00
CGA:   2    -0.148292993232E+03   -0.12339E-04   -0.12341E-04  1152   0.949E-05-0.873E-07
CGA:   3    -0.148292995629E+03   -0.23967E-05   -0.23961E-05  1152   0.153E-05-0.675E-08
CGA:   4    -0.148292996023E+03   -0.39473E-06   -0.39448E-06  1152   0.279E-06-0.340E-08
CGA:   5    -0.148292996114E+03   -0.90592E-07   -0.90388E-07  1152   0.809E-07-0.231E-07
CGA:   6    -0.148292996140E+03   -0.26340E-07   -0.26489E-07  1152   0.259E-07-0.588E-08
CGA:   7    -0.148292996148E+03   -0.77798E-08   -0.78287E-08  1152   0.651E-08 0.154E-08
CGA:   8    -0.148292996151E+03   -0.26507E-08   -0.30331E-08  1152   0.261E-08-0.136E-08
 414 F= -.14829300E+03 E0= -.14829300E+03  d E =-.362223E-05
       N       E                     dE             d eps       ncg     rms          ort
SDA:   1    -0.148292867222E+03    0.12893E-03    0.00000E+00  1152   0.305E-03 0.000E+00
CGA:   2    -0.148292978009E+03   -0.11079E-03   -0.11079E-03  1152   0.853E-04-0.265E-06
CGA:   3    -0.148292999539E+03   -0.21530E-04   -0.21529E-04  1152   0.140E-04-0.182E-07
CGA:   4    -0.148293003105E+03   -0.35656E-05   -0.35653E-05  1152   0.259E-05-0.286E-08
CGA:   5    -0.148293003902E+03   -0.79704E-06   -0.79477E-06  1152   0.637E-06-0.665E-07
CGA:   6    -0.148293004122E+03   -0.22009E-06   -0.22054E-06  1152   0.202E-06-0.185E-07
CGA:   7    -0.148293004192E+03   -0.69687E-07   -0.69665E-07  1152   0.566E-07 0.405E-08
CGA:   8    -0.148293004214E+03   -0.22190E-07   -0.22409E-07  1152   0.154E-07-0.341E-08
 415 F= -.14829300E+03 E0= -.14829300E+03  d E =-.116855E-04
       N       E                     dE             d eps       ncg     rms          ort
SDA:   1    -0.148292460470E+03    0.54372E-03    0.00000E+00  1152   0.122E-02 0.000E+00
CGA:   2    -0.148292903411E+03   -0.44294E-03   -0.44295E-03  1152   0.341E-03-0.510E-06
CGA:   3    -0.148292989488E+03   -0.86077E-04   -0.86077E-04  1152   0.560E-04-0.307E-07
CGA:   4    -0.148293003764E+03   -0.14276E-04   -0.14276E-04  1152   0.104E-04-0.606E-08
CGA:   5    -0.148293006913E+03   -0.31483E-05   -0.31435E-05  1152   0.249E-05-0.132E-06
CGA:   6    -0.148293007783E+03   -0.86985E-06   -0.87046E-06  1152   0.788E-06-0.359E-07
CGA:   7    -0.148293008065E+03   -0.28289E-06   -0.28274E-06  1152   0.232E-06 0.691E-08
CGA:   8    -0.148293008152E+03   -0.86929E-07   -0.87137E-07  1152   0.575E-07-0.553E-08
 416 F= -.14829301E+03 E0= -.14829301E+03  d E =-.156238E-04
       N       E                     dE             d eps       ncg     rms          ort
SDA:   1    -0.148292922175E+03    0.85891E-04    0.00000E+00  1152   0.211E-03 0.000E+00
CGA:   2    -0.148292997269E+03   -0.75095E-04   -0.75097E-04  1152   0.549E-04-0.212E-06
CGA:   3    -0.148293011418E+03   -0.14148E-04   -0.14153E-04  1152   0.914E-05 0.485E-07
CGA:   4    -0.148293013737E+03   -0.23188E-05   -0.23188E-05  1152   0.173E-05 0.118E-08
CGA:   5    -0.148293014262E+03   -0.52531E-06   -0.52373E-06  1152   0.429E-06-0.466E-07
CGA:   6    -0.148293014412E+03   -0.15000E-06   -0.15033E-06  1152   0.138E-06-0.172E-07
CGA:   7    -0.148293014459E+03   -0.47420E-07   -0.47246E-07  1152   0.386E-07 0.399E-08
CGA:   8    -0.148293014474E+03   -0.15134E-07   -0.15142E-07  1152   0.102E-07-0.164E-08
 417 F= -.14829301E+03 E0= -.14829301E+03  d E =-.632210E-05
       N       E                     dE             d eps       ncg     rms          ort
SDA:   1    -0.148292195699E+03    0.81876E-03    0.00000E+00  1152   0.190E-02 0.000E+00
CGA:   2    -0.148292870974E+03   -0.67527E-03   -0.67528E-03  1152   0.493E-03-0.567E-06
CGA:   3    -0.148292998261E+03   -0.12729E-03   -0.12730E-03  1152   0.826E-04 0.152E-06
CGA:   4    -0.148293019110E+03   -0.20849E-04   -0.20850E-04  1152   0.157E-04 0.608E-08
CGA:   5    -0.148293023789E+03   -0.46791E-05   -0.46731E-05  1152   0.372E-05-0.140E-06
CGA:   6    -0.148293025095E+03   -0.13054E-05   -0.13062E-05  1152   0.116E-05-0.495E-07
CGA:   7    -0.148293025523E+03   -0.42860E-06   -0.42809E-06  1152   0.352E-06 0.102E-07
CGA:   8    -0.148293025654E+03   -0.13090E-06   -0.13116E-06  1152   0.848E-07-0.636E-08
 418 F= -.14829303E+03 E0= -.14829303E+03  d E =-.175018E-04
       N       E                     dE             d eps       ncg     rms          ort
SDA:   1    -0.148292955342E+03    0.70181E-04    0.00000E+00  1152   0.162E-03 0.000E+00
CGA:   2    -0.148293013089E+03   -0.57747E-04   -0.57749E-04  1152   0.422E-04-0.185E-06
CGA:   3    -0.148293023976E+03   -0.10887E-04   -0.10890E-04  1152   0.700E-05 0.428E-07
CGA:   4    -0.148293025758E+03   -0.17818E-05   -0.17819E-05  1152   0.132E-05 0.125E-08
CGA:   5    -0.148293026161E+03   -0.40372E-06   -0.40223E-06  1152   0.336E-06-0.416E-07
CGA:   6    -0.148293026278E+03   -0.11622E-06   -0.11649E-06  1152   0.108E-06-0.141E-07
CGA:   7    -0.148293026314E+03   -0.36755E-07   -0.36727E-07  1152   0.302E-07 0.324E-08
CGA:   8    -0.148293026326E+03   -0.11823E-07   -0.12055E-07  1152   0.826E-08-0.184E-08
 419 F= -.14829303E+03 E0= -.14829303E+03  d E =-.181737E-04
       N       E                     dE             d eps       ncg     rms          ort
SDA:   1    -0.148293011161E+03    0.15153E-04    0.00000E+00  1152   0.495E-04 0.000E+00
CGA:   2    -0.148293028916E+03   -0.17754E-04   -0.17754E-04  1152   0.142E-04 0.463E-07
CGA:   3    -0.148293032427E+03   -0.35112E-05   -0.35323E-05  1152   0.220E-05 0.202E-06
CGA:   4    -0.148293032999E+03   -0.57181E-06   -0.57436E-06  1152   0.400E-06 0.292E-07
CGA:   5    -0.148293033113E+03   -0.11389E-06   -0.11528E-06  1152   0.884E-07 0.224E-07
CGA:   6    -0.148293033146E+03   -0.33638E-07   -0.33547E-07  1152   0.305E-07-0.476E-10
CGA:   7    -0.148293033157E+03   -0.10701E-07   -0.10569E-07  1152   0.873E-08 0.214E-08
CGA:   8    -0.148293033161E+03   -0.36625E-08   -0.36790E-08  1152   0.249E-08-0.244E-09
 420 F= -.14829303E+03 E0= -.14829303E+03  d E =-.683455E-05
       N       E                     dE             d eps       ncg     rms          ort
SDA:   1    -0.148292978258E+03    0.54899E-04    0.00000E+00  1152   0.133E-03 0.000E+00
CGA:   2    -0.148293025851E+03   -0.47593E-04   -0.47594E-04  1152   0.382E-04 0.734E-07
CGA:   3    -0.148293035324E+03   -0.94731E-05   -0.95117E-05  1152   0.596E-05 0.313E-06
CGA:   4    -0.148293036865E+03   -0.15416E-05   -0.15466E-05  1152   0.108E-05 0.460E-07
CGA:   5    -0.148293037178E+03   -0.31235E-06   -0.31468E-06  1152   0.242E-06 0.338E-07
CGA:   6    -0.148293037266E+03   -0.88362E-07   -0.88432E-07  1152   0.797E-07-0.640E-09
CGA:   7    -0.148293037295E+03   -0.28851E-07   -0.28949E-07  1152   0.240E-07 0.217E-08
CGA:   8    -0.148293037304E+03   -0.95031E-08   -0.93728E-08  1152   0.606E-08-0.278E-09
 421 F= -.14829304E+03 E0= -.14829304E+03  d E =-.109783E-04
       N       E                     dE             d eps       ncg     rms          ort
SDA:   1    -0.148293009972E+03    0.27323E-04    0.00000E+00  1152   0.768E-04 0.000E+00
CGA:   2    -0.148293036683E+03   -0.26711E-04   -0.26703E-04  1152   0.258E-04-0.314E-06
CGA:   3    -0.148293042957E+03   -0.62736E-05   -0.63070E-05  1152   0.372E-05 0.265E-06
CGA:   4    -0.148293043918E+03   -0.96088E-06   -0.96818E-06  1152   0.695E-06 0.667E-07
CGA:   5    -0.148293044115E+03   -0.19765E-06   -0.20018E-06  1152   0.157E-06 0.340E-07
CGA:   6    -0.148293044180E+03   -0.64368E-07   -0.65224E-07  1152   0.694E-07-0.182E-07
CGA:   7    -0.148293044203E+03   -0.23162E-07   -0.23250E-07  1152   0.216E-07-0.583E-08
CGA:   8    -0.148293044208E+03   -0.55957E-08   -0.57563E-08  1152   0.489E-08 0.354E-08
 422 F= -.14829304E+03 E0= -.14829304E+03  d E =-.690401E-05
