<?xml version="1.0" encoding="ISO-8859-1"?>
<modeling>
 <generator>
  <i name="program" type="string">vasp </i>
  <i name="version" type="string">6.3.1  </i>
  <i name="subversion" type="string">04May22 (build May 25 2022 13:42:54) complex                          parallel </i>
  <i name="platform" type="string">HPECrayEX_GCC </i>
  <i name="date" type="string">2022 09 13 </i>
  <i name="time" type="string">18:07:16 </i>
 </generator>
 <incar>
  <i type="string" name="SYSTEM">cubic-FASnI3</i>
  <i type="int" name="ISTART">     0</i>
  <i type="string" name="PREC">Accurate</i>
  <i type="string" name="ALGO">ALL</i>
  <i type="int" name="ISPIN">     1</i>
  <i type="int" name="NELM">   200</i>
  <i type="int" name="NELMIN">     8</i>
  <i type="int" name="IBRION">     2</i>
  <i name="EDIFF">      0.00000500</i>
  <i name="EDIFFG">     -0.01000000</i>
  <i type="int" name="NSW">  1000</i>
  <i type="int" name="ISIF">     0</i>
  <i type="int" name="ISYM">     0</i>
  <i name="ENCUT">    700.00000000</i>
  <i type="logical" name="LREAL"> F  </i>
  <i type="int" name="ISMEAR">     0</i>
  <i name="SIGMA">      0.05000000</i>
  <i type="logical" name="LWAVE"> F  </i>
  <i type="logical" name="LCHARG"> F  </i>
  <i type="logical" name="LASPH"> T  </i>
  <i type="string" name="METAGGA">R2SCAN</i>
 </incar>
 <primitive_cell>
  <structure name="primitive_cell" >
   <crystal>
    <varray name="basis" >
     <v>       6.30740000       0.00000000       0.00000000 </v>
     <v>       0.00000000       6.30740000       0.00000000 </v>
     <v>       0.00000000       0.00000000       6.30740000 </v>
    </varray>
    <i name="volume">    250.92915337 </i>
    <varray name="rec_basis" >
     <v>       0.15854393       0.00000000       0.00000000 </v>
     <v>       0.00000000       0.15854393       0.00000000 </v>
     <v>       0.00000000       0.00000000       0.15854393 </v>
    </varray>
   </crystal>
   <varray name="positions" >
    <v>       0.94853461       0.02293743       0.03673735 </v>
    <v>       0.03801771       0.96402578       0.72805231 </v>
    <v>       0.25232648       0.90706617       0.06416545 </v>
    <v>       0.12307854       0.97524003       0.30087154 </v>
    <v>       0.78297077       0.06776438       0.76562723 </v>
    <v>       0.81468361       0.08259545       0.13218080 </v>
    <v>       0.00000000       0.50000000       0.50000000 </v>
    <v>       0.50000000       0.00000000       0.50000000 </v>
    <v>       0.50000000       0.50000000       0.00000000 </v>
    <v>       0.12065678       0.96706821       0.13788838 </v>
    <v>       0.92267762       0.01350102       0.83126441 </v>
    <v>       0.50000000       0.50000000       0.50000000 </v>
   </varray>
  </structure>
  <varray name="primitive_index" >
   <v type="int" >        1 </v>
   <v type="int" >        2 </v>
   <v type="int" >        3 </v>
   <v type="int" >        4 </v>
   <v type="int" >        5 </v>
   <v type="int" >        6 </v>
   <v type="int" >        7 </v>
   <v type="int" >        8 </v>
   <v type="int" >        9 </v>
   <v type="int" >       10 </v>
   <v type="int" >       11 </v>
   <v type="int" >       12 </v>
  </varray>
 </primitive_cell>
 <kpoints>
  <generation param="Gamma">
   <v type="int" name="divisions">       4        4        4 </v>
   <v name="usershift">      0.00000000       0.00000000       0.00000000 </v>
   <v name="genvec1">      0.25000000       0.00000000       0.00000000 </v>
   <v name="genvec2">      0.00000000       0.25000000       0.00000000 </v>
   <v name="genvec3">      0.00000000       0.00000000       0.25000000 </v>
   <v name="shift">      0.00000000       0.00000000       0.00000000 </v>
  </generation>
  <varray name="kpointlist" >
   <v>       0.00000000       0.00000000       0.00000000 </v>
   <v>       0.25000000       0.00000000       0.00000000 </v>
   <v>       0.00000000       0.25000000       0.00000000 </v>
   <v>       0.00000000       0.00000000       0.25000000 </v>
   <v>       0.50000000       0.00000000       0.00000000 </v>
   <v>       0.00000000       0.50000000       0.00000000 </v>
   <v>       0.00000000       0.00000000       0.50000000 </v>
   <v>       0.25000000       0.25000000       0.00000000 </v>
   <v>       0.00000000       0.25000000       0.25000000 </v>
   <v>       0.25000000       0.00000000       0.25000000 </v>
   <v>      -0.25000000       0.25000000       0.00000000 </v>
   <v>      -0.25000000       0.00000000       0.25000000 </v>
   <v>       0.00000000      -0.25000000       0.25000000 </v>
   <v>       0.50000000       0.25000000       0.00000000 </v>
   <v>       0.00000000       0.50000000       0.25000000 </v>
   <v>       0.25000000       0.00000000       0.50000000 </v>
   <v>      -0.25000000       0.50000000       0.00000000 </v>
   <v>       0.50000000       0.00000000       0.25000000 </v>
   <v>       0.00000000       0.25000000       0.50000000 </v>
   <v>       0.50000000       0.50000000       0.00000000 </v>
   <v>       0.00000000       0.50000000       0.50000000 </v>
   <v>       0.50000000       0.00000000       0.50000000 </v>
   <v>       0.25000000       0.25000000       0.25000000 </v>
   <v>      -0.25000000       0.25000000       0.25000000 </v>
   <v>      -0.25000000      -0.25000000       0.25000000 </v>
   <v>       0.25000000      -0.25000000       0.25000000 </v>
   <v>       0.50000000       0.25000000       0.25000000 </v>
   <v>       0.25000000       0.50000000       0.25000000 </v>
   <v>       0.25000000       0.25000000       0.50000000 </v>
   <v>      -0.25000000       0.50000000       0.25000000 </v>
   <v>      -0.25000000       0.25000000       0.50000000 </v>
   <v>       0.50000000      -0.25000000       0.25000000 </v>
   <v>       0.50000000       0.50000000       0.25000000 </v>
   <v>       0.25000000       0.50000000       0.50000000 </v>
   <v>       0.50000000       0.25000000       0.50000000 </v>
   <v>       0.50000000       0.50000000       0.50000000 </v>
  </varray>
  <varray name="weights" >
   <v>       0.01562500 </v>
   <v>       0.03125000 </v>
   <v>       0.03125000 </v>
   <v>       0.03125000 </v>
   <v>       0.01562500 </v>
   <v>       0.01562500 </v>
   <v>       0.01562500 </v>
   <v>       0.03125000 </v>
   <v>       0.03125000 </v>
   <v>       0.03125000 </v>
   <v>       0.03125000 </v>
   <v>       0.03125000 </v>
   <v>       0.03125000 </v>
   <v>       0.03125000 </v>
   <v>       0.03125000 </v>
   <v>       0.03125000 </v>
   <v>       0.03125000 </v>
   <v>       0.03125000 </v>
   <v>       0.03125000 </v>
   <v>       0.01562500 </v>
   <v>       0.01562500 </v>
   <v>       0.01562500 </v>
   <v>       0.03125000 </v>
   <v>       0.03125000 </v>
   <v>       0.03125000 </v>
   <v>       0.03125000 </v>
   <v>       0.03125000 </v>
   <v>       0.03125000 </v>
   <v>       0.03125000 </v>
   <v>       0.03125000 </v>
   <v>       0.03125000 </v>
   <v>       0.03125000 </v>
   <v>       0.03125000 </v>
   <v>       0.03125000 </v>
   <v>       0.03125000 </v>
   <v>       0.01562500 </v>
  </varray>
 </kpoints>
 <parameters>
  <separator name="general" >
   <i type="string" name="SYSTEM">cubic-FASnI3</i>
   <i type="logical" name="LCOMPAT"> F  </i>
  </separator>
  <separator name="electronic" >
   <i type="string" name="PREC">accura</i>
   <i name="ENMAX">    700.00000000</i>
   <i name="ENAUG">    644.87300000</i>
   <i name="EDIFF">      0.00000500</i>
   <i type="int" name="IALGO">    58</i>
   <i type="int" name="IWAVPR">    11</i>
   <i type="int" name="NBANDS">    32</i>
   <i type="int" name="NBANDSLOW">    -1</i>
   <i type="int" name="NBANDSHIGH">    -1</i>
   <i name="NELECT">     44.00000000</i>
   <i type="int" name="TURBO">     0</i>
   <i type="int" name="IRESTART">     0</i>
   <i type="int" name="NREBOOT">     0</i>
   <i type="int" name="NMIN">     0</i>
   <i name="EREF">      0.00000000</i>
   <separator name="electronic smearing" >
    <i type="int" name="ISMEAR">     0</i>
    <i name="SIGMA">      0.05000000</i>
    <i name="KSPACING">      0.50000000</i>
    <i type="logical" name="KGAMMA"> T  </i>
    <i type="logical" name="KBLOWUP"> T  </i>
   </separator>
   <separator name="electronic projectors" >
    <i type="logical" name="LREAL"> F  </i>
    <v name="ROPT">      0.00000000      0.00000000      0.00000000      0.00000000      0.00000000</v>
    <i type="int" name="LMAXPAW">  -100</i>
    <i type="int" name="LMAXMIX">     2</i>
    <i type="logical" name="NLSPLINE"> F  </i>
   </separator>
   <separator name="electronic startup" >
    <i type="int" name="ISTART">     0</i>
    <i type="int" name="ICHARG">     2</i>
    <i type="int" name="INIWAV">     1</i>
   </separator>
   <separator name="electronic spin" >
    <i type="int" name="ISPIN">     1</i>
    <i type="logical" name="LNONCOLLINEAR"> F  </i>
    <v name="MAGMOM">      1.00000000      1.00000000      1.00000000      1.00000000      1.00000000      1.00000000      1.00000000      1.00000000      1.00000000      1.00000000      1.00000000      1.00000000</v>
    <i name="NUPDOWN">     -1.00000000</i>
    <i type="logical" name="LSORBIT"> F  </i>
    <v name="SAXIS">      0.00000000      0.00000000      1.00000000</v>
    <i type="logical" name="LSPIRAL"> F  </i>
    <v name="QSPIRAL">      0.00000000      0.00000000      0.00000000</v>
    <i type="logical" name="LZEROZ"> F  </i>
   </separator>
   <separator name="electronic exchange-correlation" >
    <i type="logical" name="LASPH"> T  </i>
    <i type="logical" name="LMETAGGA"> F  </i>
   </separator>
   <separator name="electronic convergence" >
    <i type="int" name="NELM">   200</i>
    <i type="int" name="NELMDL">    -5</i>
    <i type="int" name="NELMIN">     8</i>
    <i name="ENINI">    700.00000000</i>
    <separator name="electronic convergence detail" >
     <i type="logical" name="LDIAG"> T  </i>
     <i type="logical" name="LSUBROT"> F  </i>
     <i name="WEIMIN">      0.00100000</i>
     <i name="EBREAK">      0.00000004</i>
     <i name="DEPER">      0.30000000</i>
     <i type="int" name="NRMM">     4</i>
     <i name="TIME">      0.40000000</i>
    </separator>
   </separator>
   <separator name="electronic mixer" >
    <i name="AMIX">      0.40000000</i>
    <i name="BMIX">      1.00000000</i>
    <i name="AMIN">      0.10000000</i>
    <i name="AMIX_MAG">      1.60000000</i>
    <i name="BMIX_MAG">      1.00000000</i>
    <separator name="electronic mixer details" >
     <i type="int" name="IMIX">     4</i>
     <i type="logical" name="MIXFIRST"> F  </i>
     <i type="int" name="MAXMIX">   -45</i>
     <i name="WC">    100.00000000</i>
     <i type="int" name="INIMIX">     1</i>
     <i type="int" name="MIXPRE">     1</i>
     <i type="int" name="MREMOVE">     5</i>
    </separator>
   </separator>
   <separator name="electronic dipolcorrection" >
    <i type="logical" name="LDIPOL"> F  </i>
    <i type="logical" name="LMONO"> F  </i>
    <i type="int" name="IDIPOL">     0</i>
    <i name="EPSILON">      1.00000000</i>
    <v name="DIPOL">   -100.00000000   -100.00000000   -100.00000000</v>
    <i name="EFIELD">      0.00000000</i>
   </separator>
  </separator>
  <separator name="grids" >
   <i type="int" name="NGX">    54</i>
   <i type="int" name="NGY">    54</i>
   <i type="int" name="NGZ">    54</i>
   <i type="int" name="NGXF">   108</i>
   <i type="int" name="NGYF">   108</i>
   <i type="int" name="NGZF">   108</i>
   <i type="logical" name="ADDGRID"> F  </i>
  </separator>
  <separator name="ionic" >
   <i type="int" name="NSW">  1000</i>
   <i type="int" name="IBRION">     2</i>
   <i type="int" name="MDALGO">     0</i>
   <i type="int" name="ISIF">     0</i>
   <i name="PSTRESS">      0.00000000</i>
   <i name="EDIFFG">     -0.01000000</i>
   <i type="int" name="NFREE">     1</i>
   <i name="POTIM">      0.50000000</i>
   <i name="SMASS">     -3.00000000</i>
   <i name="SCALEE">      1.00000000</i>
  </separator>
  <separator name="ionic md" >
   <i name="TEBEG">      0.00010000</i>
   <i name="TEEND">      0.00010000</i>
   <i type="int" name="NBLOCK">     1</i>
   <i type="int" name="KBLOCK">  1000</i>
   <i type="int" name="NPACO">   256</i>
   <i name="APACO">     10.00000000</i>
  </separator>
  <separator name="symmetry" >
   <i type="int" name="ISYM">     0</i>
   <i name="SYMPREC">      0.00001000</i>
  </separator>
  <separator name="dos" >
   <i type="int" name="LORBIT">     0</i>
   <v name="RWIGS">     -1.00000000     -1.00000000     -1.00000000     -1.00000000     -1.00000000</v>
   <i type="int" name="NEDOS">   301</i>
   <i name="EMIN">     10.00000000</i>
   <i name="EMAX">    -10.00000000</i>
   <i name="EFERMI">      0.00000000</i>
  </separator>
  <separator name="writing" >
   <i type="int" name="NWRITE">     2</i>
   <i type="logical" name="LWAVE"> F  </i>
   <i type="logical" name="LDOWNSAMPLE"> F  </i>
   <i type="logical" name="LCHARG"> F  </i>
   <i type="logical" name="LPARD"> F  </i>
   <i type="logical" name="LVTOT"> F  </i>
   <i type="logical" name="LVHAR"> F  </i>
   <i type="logical" name="LELF"> F  </i>
   <i type="logical" name="LOPTICS"> F  </i>
   <v name="STM">      0.00000000      0.00000000      0.00000000      0.00000000      0.00000000      0.00000000      0.00000000</v>
  </separator>
  <separator name="performance" >
   <i type="int" name="NPAR">     8</i>
   <i type="int" name="NSIM">     4</i>
   <i type="int" name="NBLK">    -1</i>
   <i type="logical" name="LPLANE"> T  </i>
   <i type="logical" name="LSCALAPACK"> T  </i>
   <i type="logical" name="LSCAAWARE"> F  </i>
   <i type="logical" name="LSCALU"> F  </i>
   <i type="logical" name="LASYNC"> F  </i>
   <i type="logical" name="LORBITALREAL"> F  </i>
  </separator>
  <separator name="miscellaneous" >
   <i type="int" name="IDIOT">     3</i>
   <i type="int" name="PHON_NSTRUCT">    -1</i>
   <i type="logical" name="LMUSIC"> F  </i>
   <v name="POMASS">     12.01100000      1.00000000    126.90400000     14.00100000    118.71000000</v>
   <v name="DARWINR">      0.00000000      0.00000000      0.00000000      0.00000000      0.00000000</v>
   <v name="DARWINV">      1.00000000      1.00000000      1.00000000      1.00000000      1.00000000</v>
   <i type="logical" name="LCORR"> T  </i>
  </separator>
  <i type="logical" name="GGA_COMPAT"> T  </i>
  <i type="logical" name="LBERRY"> F  </i>
  <i type="int" name="ICORELEVEL">     0</i>
  <i type="logical" name="LDAU"> F  </i>
  <i type="int" name="I_CONSTRAINED_M">     0</i>
  <separator name="electronic exchange-correlation" >
   <i type="string" name="GGA">--</i>
   <i type="int" name="VOSKOWN">     0</i>
   <i type="logical" name="LHFCALC"> F  </i>
   <i type="string" name="PRECFOCK"></i>
   <i type="logical" name="LSYMGRAD"> F  </i>
   <i type="logical" name="LHFONE"> F  </i>
   <i type="logical" name="LRHFCALC"> F  </i>
   <i type="logical" name="LTHOMAS"> F  </i>
   <i type="logical" name="LMODELHF"> F  </i>
   <i type="logical" name="LFOCKACE"> F  </i>
   <i name="ENCUT4O">     -1.00000000</i>
   <i type="int" name="EXXOEP">     0</i>
   <i type="int" name="FOURORBIT">     0</i>
   <i name="AEXX">      0.00000000</i>
   <i name="HFALPHA">      0.00000000</i>
   <i name="MCALPHA">      0.00000000</i>
   <i name="ALDAX">      1.00000000</i>
   <i name="AGGAX">      1.00000000</i>
   <i name="ALDAC">      1.00000000</i>
   <i name="AGGAC">      1.00000000</i>
   <i type="int" name="NKREDX">     1</i>
   <i type="int" name="NKREDY">     1</i>
   <i type="int" name="NKREDZ">     1</i>
   <i type="logical" name="SHIFTRED"> F  </i>
   <i type="logical" name="ODDONLY"> F  </i>
   <i type="logical" name="EVENONLY"> F  </i>
   <i type="int" name="LMAXFOCK">     0</i>
   <i type="int" name="NMAXFOCKAE">     0</i>
   <i type="logical" name="LFOCKAEDFT"> F  </i>
   <i name="HFSCREEN">      0.00000000</i>
   <i name="HFSCREENC">      0.00000000</i>
   <i type="int" name="NBANDSGWLOW">     0</i>
  </separator>
  <separator name="vdW DFT" >
   <i type="logical" name="LUSE_VDW"> F  </i>
   <i name="Zab_VDW">     -0.84910000</i>
   <i name="PARAM1">      0.12340000</i>
   <i name="PARAM2">      1.00000000</i>
   <i name="PARAM3">      0.00000000</i>
  </separator>
  <separator name="model GW" >
   <i type="int" name="MODEL_GW">     0</i>
   <i name="MODEL_EPS0">     12.54645767</i>
   <i name="MODEL_ALPHA">      1.00000000</i>
  </separator>
  <separator name="linear response parameters" >
   <i type="logical" name="LEPSILON"> F  </i>
   <i type="logical" name="LRPA"> F  </i>
   <i type="logical" name="LNABLA"> F  </i>
   <i type="logical" name="LVEL"> F  </i>
   <i name="CSHIFT">      0.10000000</i>
   <i name="OMEGAMAX">     -1.00000000</i>
   <i name="DEG_THRESHOLD">      0.00200000</i>
   <i name="RTIME">     -0.10000000</i>
   <i name="WPLASMAI">      0.00000000</i>
   <v name="DFIELD">      0.00000000      0.00000000      0.00000000</v>
   <v name="WPLASMA">      0.00000000      0.00000000      0.00000000      0.00000000      0.00000000      0.00000000      0.00000000      0.00000000      0.00000000</v>
  </separator>
  <separator name="orbital magnetization" >
   <i type="logical" name="NUCIND"> F  </i>
   <v name="MAGPOS">      0.00000000      0.00000000      0.00000000</v>
   <i type="logical" name="LNICSALL"> T  </i>
   <i type="logical" name="ORBITALMAG"> F  </i>
   <i type="logical" name="LMAGBLOCH"> F  </i>
   <i type="logical" name="LCHIMAG"> F  </i>
   <i type="logical" name="LGAUGE"> T  </i>
   <i type="int" name="MAGATOM">     0</i>
   <v name="MAGDIPOL">      0.00000000      0.00000000      0.00000000</v>
   <v name="AVECCONST">      0.00000000      0.00000000      0.00000000</v>
  </separator>
  <separator name="response functions" >
   <i type="logical" name="LFINITE_TEMPERATURE"> F  </i>
   <i type="logical" name="LADDER"> F  </i>
   <i type="logical" name="LRPAFORCE"> F  </i>
   <i type="logical" name="LFXC"> F  </i>
   <i type="logical" name="LHARTREE"> T  </i>
   <i type="int" name="IBSE">     0</i>
   <v type="int" name="KPOINT">    -1     0     0     0</v>
   <i type="logical" name="LTCTC"> F  </i>
   <i type="logical" name="LTCTE"> F  </i>
   <i type="logical" name="LTETE"> F  </i>
   <i type="logical" name="LTRIPLET"> F  </i>
   <i type="logical" name="LFXCEPS"> F  </i>
   <i type="logical" name="LFXHEG"> F  </i>
   <i type="int" name="NATURALO">     2</i>
   <i type="logical" name="LHOLEGF"> F  </i>
   <i type="logical" name="L2ORDER"> F  </i>
   <i type="logical" name="LDMP1"> F  </i>
   <i type="logical" name="LMP2LT"> F  </i>
   <i type="logical" name="LSMP2LT"> F  </i>
   <i type="logical" name="LGWLF"> F  </i>
   <i name="ENCUTGW">     -2.00000000</i>
   <i name="ENCUTGWSOFT">     -2.00000000</i>
   <i name="ENCUTLF">     -1.00000000</i>
   <i type="logical" name="LESF_SPLINES"> F  </i>
   <i type="int" name="LMAXMP2">    -1</i>
   <i name="SCISSOR">      0.00000000</i>
   <i type="int" name="NOMEGA">     0</i>
   <i type="int" name="NOMEGAR">     0</i>
   <i type="int" name="NBANDSGW">    -1</i>
   <i type="int" name="NBANDSO">    -1</i>
   <i type="int" name="NBANDSV">    -1</i>
   <i type="int" name="NELMGW">     1</i>
   <i type="int" name="NELMHF">     1</i>
   <i type="int" name="DIM">     3</i>
   <i type="int" name="IESPILON">     4</i>
   <i type="int" name="ANTIRES">     0</i>
   <i name="OMEGAMAX">    -30.00000000</i>
   <i name="OMEGAMIN">    -30.00000000</i>
   <i name="OMEGATL">   -200.00000000</i>
   <i type="int" name="OMEGAGRID">     0</i>
   <i name="CSHIFT">     -0.10000000</i>
   <i type="logical" name="LSELFENERGY"> F  </i>
   <i type="logical" name="LSPECTRAL"> F  </i>
   <i type="logical" name="LSPECTRALGW"> F  </i>
   <i type="logical" name="LSINGLES"> F  </i>
   <i type="logical" name="LFERMIGW"> F  </i>
   <i type="logical" name="ODDONLYGW"> F  </i>
   <i type="logical" name="EVENONLYGW"> F  </i>
   <i type="int" name="NKREDLFX">     1</i>
   <i type="int" name="NKREDLFY">     1</i>
   <i type="int" name="NKREDLFZ">     1</i>
   <i type="int" name="MAXMEM">  2800</i>
   <i type="int" name="TELESCOPE">     0</i>
   <i type="int" name="NTAUPAR">    -1</i>
   <i type="int" name="NOMEGAPAR">    -1</i>
   <i name="DAMP_NEWTON">      0.80000001</i>
   <i name="LAMBDA">      1.00000000</i>
  </separator>
  <separator name="External order field" >
   <i name="OFIELD_KAPPA">      0.00000000</i>
   <v name="OFIELD_K">      0.00000000      0.00000000      0.00000000</v>
   <i name="OFIELD_Q6_NEAR">      0.00000000</i>
   <i name="OFIELD_Q6_FAR">      0.00000000</i>
   <i name="OFIELD_A">      0.00000000</i>
  </separator>
  <separator name="optional k-points parameters" >
   <i type="int" name="KPOINTS_OPT_MODE">     1</i>
   <i type="logical" name="LKPOINTS_OPT"> F  </i>
  </separator>
 </parameters>
 <atominfo>
  <atoms>      12 </atoms>
  <types>       5 </types>
  <array name="atoms" >
   <dimension dim="1">ion</dimension>
   <field type="string">element</field>
   <field type="int">atomtype</field>
   <set>
    <rc><c>C </c><c>   1</c></rc>
    <rc><c>H </c><c>   2</c></rc>
    <rc><c>H </c><c>   2</c></rc>
    <rc><c>H </c><c>   2</c></rc>
    <rc><c>H </c><c>   2</c></rc>
    <rc><c>H </c><c>   2</c></rc>
    <rc><c>I </c><c>   3</c></rc>
    <rc><c>I </c><c>   3</c></rc>
    <rc><c>I </c><c>   3</c></rc>
    <rc><c>N </c><c>   4</c></rc>
    <rc><c>N </c><c>   4</c></rc>
    <rc><c>Sn</c><c>   5</c></rc>
   </set>
  </array>
  <array name="atomtypes" >
   <dimension dim="1">type</dimension>
   <field type="int">atomspertype</field>
   <field type="string">element</field>
   <field>mass</field>
   <field>valence</field>
   <field type="string">pseudopotential</field>
   <set>
    <rc><c>   1</c><c>C </c><c>     12.01100000</c><c>      4.00000000</c><c>  PAW_PBE C 08Apr2002                   </c></rc>
    <rc><c>   5</c><c>H </c><c>      1.00000000</c><c>      1.00000000</c><c>  PAW_PBE H 15Jun2001                   </c></rc>
    <rc><c>   3</c><c>I </c><c>    126.90400000</c><c>      7.00000000</c><c>  PAW_PBE I 08Apr2002                   </c></rc>
    <rc><c>   2</c><c>N </c><c>     14.00100000</c><c>      5.00000000</c><c>  PAW_PBE N 08Apr2002                   </c></rc>
    <rc><c>   1</c><c>Sn</c><c>    118.71000000</c><c>      4.00000000</c><c>  PAW_PBE Sn 08Apr2002                  </c></rc>
   </set>
  </array>
 </atominfo>
 <structure name="initialpos" >
  <crystal>
   <varray name="basis" >
    <v>       6.30740000       0.00000000       0.00000000 </v>
    <v>       0.00000000       6.30740000       0.00000000 </v>
    <v>       0.00000000       0.00000000       6.30740000 </v>
   </varray>
   <i name="volume">    250.92915337 </i>
   <varray name="rec_basis" >
    <v>       0.15854393       0.00000000       0.00000000 </v>
    <v>       0.00000000       0.15854393       0.00000000 </v>
    <v>       0.00000000       0.00000000       0.15854393 </v>
   </varray>
  </crystal>
  <varray name="positions" >
   <v>       0.94853461       0.02293743       0.03673735 </v>
   <v>       0.03801771       0.96402578       0.72805231 </v>
   <v>       0.25232648       0.90706617       0.06416545 </v>
   <v>       0.12307854       0.97524003       0.30087154 </v>
   <v>       0.78297077       0.06776438       0.76562723 </v>
   <v>       0.81468361       0.08259545       0.13218080 </v>
   <v>       0.00000000       0.50000000       0.50000000 </v>
   <v>       0.50000000       0.00000000       0.50000000 </v>
   <v>       0.50000000       0.50000000       0.00000000 </v>
   <v>       0.12065678       0.96706821       0.13788838 </v>
   <v>       0.92267762       0.01350102       0.83126441 </v>
   <v>       0.50000000       0.50000000       0.50000000 </v>
  </varray>
  <varray name="selective"  type="logical" >
   <v type="logical" >  T  T  T </v>
   <v type="logical" >  T  T  T </v>
   <v type="logical" >  T  T  T </v>
   <v type="logical" >  T  T  T </v>
   <v type="logical" >  T  T  T </v>
   <v type="logical" >  T  T  T </v>
   <v type="logical" >  F  F  F </v>
   <v type="logical" >  F  F  F </v>
   <v type="logical" >  F  F  F </v>
   <v type="logical" >  T  T  T </v>
   <v type="logical" >  T  T  T </v>
   <v type="logical" >  F  F  F </v>
  </varray>
  <nose>
   <v>      -3.00000000       0.00000000       0.00010000       0.00010000 </v>
  </nose>
 </structure>
 <calculation>
  <scstep>
   <time name="total">    3.70    5.79</time>
   <energy>
    <i name="alphaZ">     28.77967674 </i>
    <i name="ewald">  -1148.45045050 </i>
    <i name="hartreedc">   -532.69432940 </i>
    <i name="XCdc">    -43.38615644 </i>
    <i name="pawpsdc">   1483.98927343 </i>
    <i name="pawaedc">  -1407.62454885 </i>
    <i name="eentropy">     -0.00536021 </i>
    <i name="bandstr">     10.11354356 </i>
    <i name="atom">   1780.36699914 </i>
    <i name="e_fr_energy">    171.08864746 </i>
    <i name="e_wo_entrp">    171.09400767 </i>
    <i name="e_0_energy">    171.09132757 </i>
   </energy>
  </scstep>
  <scstep>
   <time name="total">    2.01    2.02</time>
   <energy>
    <i name="e_fr_energy">   -128.11392970 </i>
    <i name="e_wo_entrp">   -128.11337946 </i>
    <i name="e_0_energy">   -128.11365458 </i>
   </energy>
  </scstep>
  <scstep>
   <time name="total">    2.02    2.03</time>
   <energy>
    <i name="e_fr_energy">   -160.25668021 </i>
    <i name="e_wo_entrp">   -160.25668019 </i>
    <i name="e_0_energy">   -160.25668020 </i>
   </energy>
  </scstep>
  <scstep>
   <time name="total">    1.98    1.98</time>
   <energy>
    <i name="e_fr_energy">   -160.88655891 </i>
    <i name="e_wo_entrp">   -160.88655884 </i>
    <i name="e_0_energy">   -160.88655888 </i>
   </energy>
  </scstep>
  <scstep>
   <time name="total">    2.17    2.18</time>
   <energy>
    <i name="e_fr_energy">   -160.90139791 </i>
    <i name="e_wo_entrp">   -160.90139782 </i>
    <i name="e_0_energy">   -160.90139787 </i>
   </energy>
  </scstep>
  <scstep>
   <time name="total">    2.76    2.77</time>
   <energy>
    <i name="e_fr_energy">   -144.76809355 </i>
    <i name="e_wo_entrp">   -144.76809355 </i>
    <i name="e_0_energy">   -144.76809355 </i>
   </energy>
  </scstep>
  <scstep>
   <time name="total">    2.77    2.77</time>
   <energy>
    <i name="e_fr_energy">   -147.54629597 </i>
    <i name="e_wo_entrp">   -147.54629597 </i>
    <i name="e_0_energy">   -147.54629597 </i>
   </energy>
  </scstep>
  <scstep>
   <time name="total">    2.76    2.77</time>
   <energy>
    <i name="e_fr_energy">   -147.92410072 </i>
    <i name="e_wo_entrp">   -147.92410072 </i>
    <i name="e_0_energy">   -147.92410072 </i>
   </energy>
  </scstep>
  <scstep>
   <time name="total">    2.76    2.77</time>
   <energy>
    <i name="e_fr_energy">   -148.04384012 </i>
    <i name="e_wo_entrp">   -148.04384012 </i>
    <i name="e_0_energy">   -148.04384012 </i>
   </energy>
  </scstep>
  <scstep>
   <time name="total">    2.77    2.77</time>
   <energy>
    <i name="e_fr_energy">   -148.08062806 </i>
    <i name="e_wo_entrp">   -148.08062806 </i>
    <i name="e_0_energy">   -148.08062806 </i>
   </energy>
  </scstep>
  <scstep>
   <time name="total">    2.76    2.77</time>
   <energy>
    <i name="e_fr_energy">   -148.09191834 </i>
    <i name="e_wo_entrp">   -148.09191834 </i>
    <i name="e_0_energy">   -148.09191834 </i>
   </energy>
  </scstep>
  <scstep>
   <time name="total">    2.77    2.78</time>
   <energy>
    <i name="e_fr_energy">   -148.09471267 </i>
    <i name="e_wo_entrp">   -148.09471267 </i>
    <i name="e_0_energy">   -148.09471267 </i>
   </energy>
  </scstep>
  <scstep>
   <time name="total">    2.77    2.77</time>
   <energy>
    <i name="e_fr_energy">   -148.09534854 </i>
    <i name="e_wo_entrp">   -148.09534854 </i>
    <i name="e_0_energy">   -148.09534854 </i>
   </energy>
  </scstep>
  <scstep>
   <time name="total">    2.76    2.77</time>
   <energy>
    <i name="e_fr_energy">   -148.09549938 </i>
    <i name="e_wo_entrp">   -148.09549938 </i>
    <i name="e_0_energy">   -148.09549938 </i>
   </energy>
  </scstep>
  <scstep>
   <time name="total">    2.76    2.77</time>
   <energy>
    <i name="e_fr_energy">   -148.09553318 </i>
    <i name="e_wo_entrp">   -148.09553318 </i>
    <i name="e_0_energy">   -148.09553318 </i>
   </energy>
  </scstep>
  <scstep>
   <time name="total">    2.76    2.77</time>
   <energy>
    <i name="e_fr_energy">   -148.09554181 </i>
    <i name="e_wo_entrp">   -148.09554181 </i>
    <i name="e_0_energy">   -148.09554181 </i>
   </energy>
  </scstep>
  <scstep>
   <time name="total">    3.09    3.09</time>
   <energy>
    <i name="alphaZ">     28.77967674 </i>
    <i name="ewald">  -1148.45045050 </i>
    <i name="hartreedc">   -588.12697540 </i>
    <i name="XCdc">    -35.90904580 </i>
    <i name="pawpsdc">   3229.63615638 </i>
    <i name="pawaedc">  -3154.60154979 </i>
    <i name="eentropy">     -0.00000000 </i>
    <i name="bandstr">   -259.79035464 </i>
    <i name="atom">   1780.36699914 </i>
    <i name="e_fr_energy">   -148.09554389 </i>
    <i name="e_wo_entrp">   -148.09554389 </i>
    <i name="e_0_energy">   -148.09554389 </i>
   </energy>
  </scstep>
  <structure>
   <crystal>
    <varray name="basis" >
     <v>       6.30740000       0.00000000       0.00000000 </v>
     <v>       0.00000000       6.30740000       0.00000000 </v>
     <v>       0.00000000       0.00000000       6.30740000 </v>
    </varray>
    <i name="volume">    250.92915337 </i>
    <varray name="rec_basis" >
     <v>       0.15854393       0.00000000       0.00000000 </v>
     <v>       0.00000000       0.15854393       0.00000000 </v>
     <v>       0.00000000       0.00000000       0.15854393 </v>
    </varray>
   </crystal>
   <varray name="positions" >
    <v>       0.94853461       0.02293743       0.03673735 </v>
    <v>       0.03801771       0.96402578       0.72805231 </v>
    <v>       0.25232648       0.90706617       0.06416545 </v>
    <v>       0.12307854       0.97524003       0.30087154 </v>
    <v>       0.78297077       0.06776438       0.76562723 </v>
    <v>       0.81468361       0.08259545       0.13218080 </v>
    <v>       0.00000000       0.50000000       0.50000000 </v>
    <v>       0.50000000       0.00000000       0.50000000 </v>
    <v>       0.50000000       0.50000000       0.00000000 </v>
    <v>       0.12065678       0.96706821       0.13788838 </v>
    <v>       0.92267762       0.01350102       0.83126441 </v>
    <v>       0.50000000       0.50000000       0.50000000 </v>
   </varray>
  </structure>
  <varray name="forces" >
   <v>      -0.28518340       0.12547864       0.08144550 </v>
   <v>      -0.30103920       0.08590698       0.45901593 </v>
   <v>      -0.38076941       0.08592354       0.22151507 </v>
   <v>       0.11904859      -0.05452895      -0.91780213 </v>
   <v>       0.62634556      -0.32606309       0.24493222 </v>
   <v>       0.43517222      -0.18474097      -0.33131843 </v>
   <v>       0.00332150      -0.00783397      -0.02000096 </v>
   <v>      -0.07536800       0.02210327       0.08561921 </v>
   <v>       0.01258709       0.01461482      -0.00806132 </v>
   <v>      -0.00394421      -0.04776968       0.47636929 </v>
   <v>      -0.14808447       0.28196853      -0.28856381 </v>
   <v>      -0.00208625       0.00494087      -0.00315057 </v>
  </varray>
  <energy>
   <i name="e_fr_energy">   -148.09554389 </i>
   <i name="e_wo_entrp">   -148.09554389 </i>
   <i name="e_0_energy">   -148.09554389 </i>
  </energy>
  <time name="totalsc">   47.42   49.64</time>
 </calculation>
 <calculation>
  <scstep>
   <time name="total">    2.76    2.76</time>
   <energy>
    <i name="alphaZ">     28.77967674 </i>
    <i name="ewald">  -1141.55856583 </i>
    <i name="hartreedc">   -589.70701427 </i>
    <i name="XCdc">    -35.75182900 </i>
    <i name="pawpsdc">   3346.08261003 </i>
    <i name="pawaedc">  -3271.04256559 </i>
    <i name="eentropy">     -0.00000000 </i>
    <i name="bandstr">   -264.24986837 </i>
    <i name="atom">   1780.36699914 </i>
    <i name="e_fr_energy">   -147.08055714 </i>
    <i name="e_wo_entrp">   -147.08055714 </i>
    <i name="e_0_energy">   -147.08055714 </i>
   </energy>
  </scstep>
  <scstep>
   <time name="total">    2.77    2.77</time>
   <energy>
    <i name="e_fr_energy">   -147.80948508 </i>
    <i name="e_wo_entrp">   -147.80948508 </i>
    <i name="e_0_energy">   -147.80948508 </i>
   </energy>
  </scstep>
  <scstep>
   <time name="total">    2.76    2.77</time>
   <energy>
    <i name="e_fr_energy">   -147.96787151 </i>
    <i name="e_wo_entrp">   -147.96787151 </i>
    <i name="e_0_energy">   -147.96787151 </i>
   </energy>
  </scstep>
  <scstep>
   <time name="total">    2.77    2.77</time>
   <energy>
    <i name="e_fr_energy">   -147.99304478 </i>
    <i name="e_wo_entrp">   -147.99304478 </i>
    <i name="e_0_energy">   -147.99304478 </i>
   </energy>
  </scstep>
  <scstep>
   <time name="total">    2.76    2.77</time>
   <energy>
    <i name="e_fr_energy">   -147.99794697 </i>
    <i name="e_wo_entrp">   -147.99794697 </i>
    <i name="e_0_energy">   -147.99794697 </i>
   </energy>
  </scstep>
  <scstep>
   <time name="total">    2.76    2.77</time>
   <energy>
    <i name="e_fr_energy">   -147.99915073 </i>
    <i name="e_wo_entrp">   -147.99915073 </i>
    <i name="e_0_energy">   -147.99915073 </i>
   </energy>
  </scstep>
  <scstep>
   <time name="total">    2.77    2.77</time>
   <energy>
    <i name="e_fr_energy">   -147.99953366 </i>
    <i name="e_wo_entrp">   -147.99953366 </i>
    <i name="e_0_energy">   -147.99953366 </i>
   </energy>
  </scstep>
  <scstep>
   <time name="total">    2.76    2.77</time>
   <energy>
    <i name="e_fr_energy">   -147.99965713 </i>
    <i name="e_wo_entrp">   -147.99965713 </i>
    <i name="e_0_energy">   -147.99965713 </i>
   </energy>
  </scstep>
  <scstep>
   <time name="total">    2.76    2.77</time>
   <energy>
    <i name="e_fr_energy">   -147.99968705 </i>
    <i name="e_wo_entrp">   -147.99968705 </i>
    <i name="e_0_energy">   -147.99968705 </i>
   </energy>
  </scstep>
  <scstep>
   <time name="total">    2.76    2.77</time>
   <energy>
    <i name="e_fr_energy">   -147.99969319 </i>
    <i name="e_wo_entrp">   -147.99969319 </i>
    <i name="e_0_energy">   -147.99969319 </i>
   </energy>
  </scstep>
  <scstep>
   <time name="total">    3.08    3.09</time>
   <energy>
    <i name="alphaZ">     28.77967674 </i>
    <i name="ewald">  -1141.55856583 </i>
    <i name="hartreedc">   -591.75989406 </i>
    <i name="XCdc">    -35.43605486 </i>
    <i name="pawpsdc">   3261.02221856 </i>
    <i name="pawaedc">  -3186.02504148 </i>
    <i name="eentropy">     -0.00000000 </i>
    <i name="bandstr">   -263.38903279 </i>
    <i name="atom">   1780.36699914 </i>
    <i name="e_fr_energy">   -147.99969459 </i>
    <i name="e_wo_entrp">   -147.99969459 </i>
    <i name="e_0_energy">   -147.99969459 </i>
   </energy>
  </scstep>
  <structure>
   <crystal>
    <varray name="basis" >
     <v>       6.30740000       0.00000000       0.00000000 </v>
     <v>       0.00000000       6.30740000       0.00000000 </v>
     <v>       0.00000000       0.00000000       6.30740000 </v>
    </varray>
    <i name="volume">    250.92915337 </i>
    <varray name="rec_basis" >
     <v>       0.15854393       0.00000000       0.00000000 </v>
     <v>       0.00000000       0.15854393       0.00000000 </v>
     <v>       0.00000000       0.00000000       0.15854393 </v>
    </varray>
   </crystal>
   <varray name="positions" >
    <v>       0.94635336       0.02389717       0.03736029 </v>
    <v>       0.03571519       0.96468285       0.73156313 </v>
    <v>       0.24941414       0.90772336       0.06585973 </v>
    <v>       0.12398909       0.97482296       0.29385166 </v>
    <v>       0.78776142       0.06527046       0.76750061 </v>
    <v>       0.81801206       0.08118245       0.12964668 </v>
    <v>       0.00000000       0.50000000       0.50000000 </v>
    <v>       0.50000000       0.00000000       0.50000000 </v>
    <v>       0.50000000       0.50000000       0.00000000 </v>
    <v>       0.12062662       0.96670284       0.14153193 </v>
    <v>       0.92154499       0.01565768       0.82905731 </v>
    <v>       0.50000000       0.50000000       0.50000000 </v>
   </varray>
  </structure>
  <varray name="forces" >
   <v>       1.57813714      -0.63679163      -0.80319207 </v>
   <v>       0.40416040      -0.21770773      -0.29546077 </v>
   <v>       0.01753533      -0.07916389       0.06441203 </v>
   <v>       0.08926459       0.13692321       2.33972310 </v>
   <v>      -1.31600669       0.43578566      -0.69233700 </v>
   <v>      -0.72101660       0.32578412       0.43241421 </v>
   <v>       0.00307163      -0.00611775      -0.01811153 </v>
   <v>      -0.07628034       0.01171992       0.07378329 </v>
   <v>       0.01289710       0.01559501      -0.00763961 </v>
   <v>      -1.34017047       0.21198692      -3.47329808 </v>
   <v>       1.35120657      -0.20209217       2.38211113 </v>
   <v>      -0.00279868       0.00407833      -0.00240470 </v>
  </varray>
  <energy>
   <i name="e_fr_energy">   -147.99969459 </i>
   <i name="e_wo_entrp">   -147.99969459 </i>
   <i name="e_0_energy">   -147.99969459 </i>
  </energy>
  <time name="totalsc">   32.77   32.85</time>
 </calculation>
 <calculation>
  <scstep>
   <time name="total">    2.77    2.78</time>
   <energy>
    <i name="alphaZ">     28.77967674 </i>
    <i name="ewald">  -1146.48444825 </i>
    <i name="hartreedc">   -590.11164341 </i>
    <i name="XCdc">    -35.58058533 </i>
    <i name="pawpsdc">   3303.27523820 </i>
    <i name="pawaedc">  -3228.26528512 </i>
    <i name="eentropy">     -0.00000000 </i>
    <i name="bandstr">   -259.65663627 </i>
    <i name="atom">   1780.36699914 </i>
    <i name="e_fr_energy">   -147.67668431 </i>
    <i name="e_wo_entrp">   -147.67668431 </i>
    <i name="e_0_energy">   -147.67668431 </i>
   </energy>
  </scstep>
  <scstep>
   <time name="total">    2.79    2.80</time>
   <energy>
    <i name="e_fr_energy">   -148.02479727 </i>
    <i name="e_wo_entrp">   -148.02479727 </i>
    <i name="e_0_energy">   -148.02479727 </i>
   </energy>
  </scstep>
  <scstep>
   <time name="total">    2.76    2.77</time>
   <energy>
    <i name="e_fr_energy">   -148.10098636 </i>
    <i name="e_wo_entrp">   -148.10098636 </i>
    <i name="e_0_energy">   -148.10098636 </i>
   </energy>
  </scstep>
  <scstep>
   <time name="total">    2.77    2.77</time>
   <energy>
    <i name="e_fr_energy">   -148.11336645 </i>
    <i name="e_wo_entrp">   -148.11336645 </i>
    <i name="e_0_energy">   -148.11336645 </i>
   </energy>
  </scstep>
  <scstep>
   <time name="total">    2.79    2.80</time>
   <energy>
    <i name="e_fr_energy">   -148.11571933 </i>
    <i name="e_wo_entrp">   -148.11571933 </i>
    <i name="e_0_energy">   -148.11571933 </i>
   </energy>
  </scstep>
  <scstep>
   <time name="total">    2.78    2.79</time>
   <energy>
    <i name="e_fr_energy">   -148.11630437 </i>
    <i name="e_wo_entrp">   -148.11630437 </i>
    <i name="e_0_energy">   -148.11630437 </i>
   </energy>
  </scstep>
  <scstep>
   <time name="total">    2.79    2.80</time>
   <energy>
    <i name="e_fr_energy">   -148.11649789 </i>
    <i name="e_wo_entrp">   -148.11649789 </i>
    <i name="e_0_energy">   -148.11649789 </i>
   </energy>
  </scstep>
  <scstep>
   <time name="total">    2.79    2.80</time>
   <energy>
    <i name="e_fr_energy">   -148.11656062 </i>
    <i name="e_wo_entrp">   -148.11656062 </i>
    <i name="e_0_energy">   -148.11656062 </i>
   </energy>
  </scstep>
  <scstep>
   <time name="total">    2.79    2.79</time>
   <energy>
    <i name="e_fr_energy">   -148.11657566 </i>
    <i name="e_wo_entrp">   -148.11657566 </i>
    <i name="e_0_energy">   -148.11657566 </i>
   </energy>
  </scstep>
  <scstep>
   <time name="total">    3.11    3.12</time>
   <energy>
    <i name="alphaZ">     28.77967674 </i>
    <i name="ewald">  -1146.48444825 </i>
    <i name="hartreedc">   -589.16068051 </i>
    <i name="XCdc">    -35.76976906 </i>
    <i name="pawpsdc">   3238.15147412 </i>
    <i name="pawaedc">  -3163.12718882 </i>
    <i name="eentropy">     -0.00000000 </i>
    <i name="bandstr">   -260.87264218 </i>
    <i name="atom">   1780.36699914 </i>
    <i name="e_fr_energy">   -148.11657884 </i>
    <i name="e_wo_entrp">   -148.11657884 </i>
    <i name="e_0_energy">   -148.11657884 </i>
   </energy>
  </scstep>
  <structure>
   <crystal>
    <varray name="basis" >
     <v>       6.30740000       0.00000000       0.00000000 </v>
     <v>       0.00000000       6.30740000       0.00000000 </v>
     <v>       0.00000000       0.00000000       6.30740000 </v>
    </varray>
    <i name="volume">    250.92915337 </i>
    <varray name="rec_basis" >
     <v>       0.15854393       0.00000000       0.00000000 </v>
     <v>       0.00000000       0.15854393       0.00000000 </v>
     <v>       0.00000000       0.00000000       0.15854393 </v>
    </varray>
   </crystal>
   <varray name="positions" >
    <v>       0.94785925       0.02323459       0.03693023 </v>
    <v>       0.03730479       0.96422922       0.72913934 </v>
    <v>       0.25142476       0.90726965       0.06469004 </v>
    <v>       0.12336047       0.97511089       0.29869803 </v>
    <v>       0.78445406       0.06699220       0.76620727 </v>
    <v>       0.81571417       0.08215795       0.13139618 </v>
    <v>       0.00000000       0.50000000       0.50000000 </v>
    <v>       0.50000000       0.00000000       0.50000000 </v>
    <v>       0.50000000       0.50000000       0.00000000 </v>
    <v>       0.12064744       0.96695508       0.13901651 </v>
    <v>       0.92232694       0.01416877       0.83058104 </v>
    <v>       0.50000000       0.50000000       0.50000000 </v>
   </varray>
  </structure>
  <varray name="forces" >
   <v>       0.27352615      -0.10244988      -0.17271301 </v>
   <v>      -0.09550737       0.00001631       0.23136225 </v>
   <v>      -0.25834222       0.03551462       0.17519676 </v>
   <v>       0.10353408      -0.00544184      -0.05893725 </v>
   <v>       0.10066325      -0.11177257      -0.01260404 </v>
   <v>       0.10731930      -0.04017202      -0.11681269 </v>
   <v>       0.00360445      -0.00720792      -0.01920509 </v>
   <v>      -0.07590185       0.01842647       0.08165755 </v>
   <v>       0.01254701       0.01502301      -0.00825720 </v>
   <v>      -0.42640830       0.04616006      -0.60640256 </v>
   <v>       0.25732385       0.14717224       0.50958967 </v>
   <v>      -0.00235834       0.00473153      -0.00287440 </v>
  </varray>
  <energy>
   <i name="e_fr_energy">   -148.11657884 </i>
   <i name="e_wo_entrp">   -148.11657884 </i>
   <i name="e_0_energy">   -148.11657884 </i>
  </energy>
  <time name="totalsc">   30.20   30.29</time>
 </calculation>
 <calculation>
  <scstep>
   <time name="total">    2.77    2.77</time>
   <energy>
    <i name="alphaZ">     28.77967674 </i>
    <i name="ewald">  -1133.20833780 </i>
    <i name="hartreedc">   -592.75530218 </i>
    <i name="XCdc">    -35.60048159 </i>
    <i name="pawpsdc">   3319.24540256 </i>
    <i name="pawaedc">  -3244.23857236 </i>
    <i name="eentropy">     -0.00000000 </i>
    <i name="bandstr">   -270.13480129 </i>
    <i name="atom">   1780.36699914 </i>
    <i name="e_fr_energy">   -147.54541678 </i>
    <i name="e_wo_entrp">   -147.54541678 </i>
    <i name="e_0_energy">   -147.54541678 </i>
   </energy>
  </scstep>
  <scstep>
   <time name="total">    2.77    2.78</time>
   <energy>
    <i name="e_fr_energy">   -147.96062683 </i>
    <i name="e_wo_entrp">   -147.96062683 </i>
    <i name="e_0_energy">   -147.96062683 </i>
   </energy>
  </scstep>
  <scstep>
   <time name="total">    2.77    2.78</time>
   <energy>
    <i name="e_fr_energy">   -148.09111450 </i>
    <i name="e_wo_entrp">   -148.09111450 </i>
    <i name="e_0_energy">   -148.09111450 </i>
   </energy>
  </scstep>
  <scstep>
   <time name="total">    2.78    2.78</time>
   <energy>
    <i name="e_fr_energy">   -148.11006278 </i>
    <i name="e_wo_entrp">   -148.11006278 </i>
    <i name="e_0_energy">   -148.11006278 </i>
   </energy>
  </scstep>
  <scstep>
   <time name="total">    2.77    2.78</time>
   <energy>
    <i name="e_fr_energy">   -148.11404931 </i>
    <i name="e_wo_entrp">   -148.11404931 </i>
    <i name="e_0_energy">   -148.11404931 </i>
   </energy>
  </scstep>
  <scstep>
   <time name="total">    2.76    2.77</time>
   <energy>
    <i name="e_fr_energy">   -148.11516999 </i>
    <i name="e_wo_entrp">   -148.11516999 </i>
    <i name="e_0_energy">   -148.11516999 </i>
   </energy>
  </scstep>
  <scstep>
   <time name="total">    2.77    2.77</time>
   <energy>
    <i name="e_fr_energy">   -148.11556943 </i>
    <i name="e_wo_entrp">   -148.11556943 </i>
    <i name="e_0_energy">   -148.11556943 </i>
   </energy>
  </scstep>
  <scstep>
   <time name="total">    2.76    2.77</time>
   <energy>
    <i name="e_fr_energy">   -148.11569179 </i>
    <i name="e_wo_entrp">   -148.11569179 </i>
    <i name="e_0_energy">   -148.11569179 </i>
   </energy>
  </scstep>
  <scstep>
   <time name="total">    2.76    2.77</time>
   <energy>
    <i name="e_fr_energy">   -148.11572047 </i>
    <i name="e_wo_entrp">   -148.11572047 </i>
    <i name="e_0_energy">   -148.11572047 </i>
   </energy>
  </scstep>
  <scstep>
   <time name="total">    2.76    2.77</time>
   <energy>
    <i name="e_fr_energy">   -148.11572683 </i>
    <i name="e_wo_entrp">   -148.11572683 </i>
    <i name="e_0_energy">   -148.11572683 </i>
   </energy>
  </scstep>
  <scstep>
   <time name="total">    3.09    3.10</time>
   <energy>
    <i name="alphaZ">     28.77967674 </i>
    <i name="ewald">  -1133.20833780 </i>
    <i name="hartreedc">   -600.10054517 </i>
    <i name="XCdc">    -35.30072697 </i>
    <i name="pawpsdc">   3319.72990393 </i>
    <i name="pawaedc">  -3244.74309112 </i>
    <i name="eentropy">     -0.00000000 </i>
    <i name="bandstr">   -263.63960699 </i>
    <i name="atom">   1780.36699914 </i>
    <i name="e_fr_energy">   -148.11572825 </i>
    <i name="e_wo_entrp">   -148.11572825 </i>
    <i name="e_0_energy">   -148.11572825 </i>
   </energy>
  </scstep>
  <structure>
   <crystal>
    <varray name="basis" >
     <v>       6.30740000       0.00000000       0.00000000 </v>
     <v>       0.00000000       6.30740000       0.00000000 </v>
     <v>       0.00000000       0.00000000       6.30740000 </v>
    </varray>
    <i name="volume">    250.92915337 </i>
    <varray name="rec_basis" >
     <v>       0.15854393       0.00000000       0.00000000 </v>
     <v>       0.00000000       0.15854393       0.00000000 </v>
     <v>       0.00000000       0.00000000       0.15854393 </v>
    </varray>
   </crystal>
   <varray name="positions" >
    <v>       0.94881932       0.02293016       0.03603241 </v>
    <v>       0.03578514       0.96448332       0.73202168 </v>
    <v>       0.24859589       0.90775781       0.06649993 </v>
    <v>       0.12439498       0.97491381       0.29559601 </v>
    <v>       0.78696947       0.06529134       0.76684832 </v>
    <v>       0.81770826       0.08134694       0.12964655 </v>
    <v>       0.00000000       0.50000000       0.50000000 </v>
    <v>       0.50000000       0.00000000       0.50000000 </v>
    <v>       0.50000000       0.50000000       0.00000000 </v>
    <v>       0.11782469       0.96711816       0.13642718 </v>
    <v>       0.92358553       0.01597264       0.83308738 </v>
    <v>       0.50000000       0.50000000       0.50000000 </v>
   </varray>
  </structure>
  <varray name="forces" >
   <v>      -0.63863117       0.31081452       0.27324523 </v>
   <v>       0.28956260      -0.15273739      -0.05472443 </v>
   <v>       0.16649212      -0.15814165      -0.25210975 </v>
   <v>      -0.05209754       0.06009783       0.10187915 </v>
   <v>      -0.26777322       0.04870908      -0.07092642 </v>
   <v>      -0.14877165       0.07710337       0.08072112 </v>
   <v>       0.00433503      -0.00167533      -0.01951792 </v>
   <v>      -0.07749683       0.01360323       0.06994190 </v>
   <v>       0.01175522       0.01426930      -0.00611842 </v>
   <v>       0.64335073      -0.26260469       0.48164055 </v>
   <v>       0.07092286       0.04720745      -0.60182733 </v>
   <v>      -0.00164814       0.00335429      -0.00220368 </v>
  </varray>
  <energy>
   <i name="e_fr_energy">   -148.11572825 </i>
   <i name="e_wo_entrp">   -148.11572825 </i>
   <i name="e_0_energy">   -148.11572825 </i>
  </energy>
  <time name="totalsc">   32.81   32.90</time>
 </calculation>
 <calculation>
  <scstep>
   <time name="total">    2.76    2.76</time>
   <energy>
    <i name="alphaZ">     28.77967674 </i>
    <i name="ewald">  -1139.94905112 </i>
    <i name="hartreedc">   -597.96269377 </i>
    <i name="XCdc">    -35.40602250 </i>
    <i name="pawpsdc">   3338.37649173 </i>
    <i name="pawaedc">  -3263.37177919 </i>
    <i name="eentropy">     -0.00000000 </i>
    <i name="bandstr">   -258.81857688 </i>
    <i name="atom">   1780.36699914 </i>
    <i name="e_fr_energy">   -147.98495585 </i>
    <i name="e_wo_entrp">   -147.98495585 </i>
    <i name="e_0_energy">   -147.98495585 </i>
   </energy>
  </scstep>
  <scstep>
   <time name="total">    2.76    2.77</time>
   <energy>
    <i name="e_fr_energy">   -148.08986503 </i>
    <i name="e_wo_entrp">   -148.08986503 </i>
    <i name="e_0_energy">   -148.08986503 </i>
   </energy>
  </scstep>
  <scstep>
   <time name="total">    2.77    2.78</time>
   <energy>
    <i name="e_fr_energy">   -148.12313878 </i>
    <i name="e_wo_entrp">   -148.12313878 </i>
    <i name="e_0_energy">   -148.12313878 </i>
   </energy>
  </scstep>
  <scstep>
   <time name="total">    2.77    2.77</time>
   <energy>
    <i name="e_fr_energy">   -148.12803855 </i>
    <i name="e_wo_entrp">   -148.12803855 </i>
    <i name="e_0_energy">   -148.12803855 </i>
   </energy>
  </scstep>
  <scstep>
   <time name="total">    2.76    2.77</time>
   <energy>
    <i name="e_fr_energy">   -148.12903825 </i>
    <i name="e_wo_entrp">   -148.12903825 </i>
    <i name="e_0_energy">   -148.12903825 </i>
   </energy>
  </scstep>
  <scstep>
   <time name="total">    2.76    2.77</time>
   <energy>
    <i name="e_fr_energy">   -148.12931361 </i>
    <i name="e_wo_entrp">   -148.12931361 </i>
    <i name="e_0_energy">   -148.12931361 </i>
   </energy>
  </scstep>
  <scstep>
   <time name="total">    2.77    2.78</time>
   <energy>
    <i name="e_fr_energy">   -148.12941075 </i>
    <i name="e_wo_entrp">   -148.12941075 </i>
    <i name="e_0_energy">   -148.12941075 </i>
   </energy>
  </scstep>
  <scstep>
   <time name="total">    2.76    2.77</time>
   <energy>
    <i name="e_fr_energy">   -148.12944096 </i>
    <i name="e_wo_entrp">   -148.12944096 </i>
    <i name="e_0_energy">   -148.12944096 </i>
   </energy>
  </scstep>
  <scstep>
   <time name="total">    2.76    2.77</time>
   <energy>
    <i name="e_fr_energy">   -148.12944809 </i>
    <i name="e_wo_entrp">   -148.12944809 </i>
    <i name="e_0_energy">   -148.12944809 </i>
   </energy>
  </scstep>
  <scstep>
   <time name="total">    3.08    3.09</time>
   <energy>
    <i name="alphaZ">     28.77967674 </i>
    <i name="ewald">  -1139.94905112 </i>
    <i name="hartreedc">   -594.55122047 </i>
    <i name="XCdc">    -35.53794674 </i>
    <i name="pawpsdc">   3277.73238604 </i>
    <i name="pawaedc">  -3202.72651370 </i>
    <i name="eentropy">     -0.00000000 </i>
    <i name="bandstr">   -262.24377949 </i>
    <i name="atom">   1780.36699914 </i>
    <i name="e_fr_energy">   -148.12944959 </i>
    <i name="e_wo_entrp">   -148.12944959 </i>
    <i name="e_0_energy">   -148.12944959 </i>
   </energy>
  </scstep>
  <structure>
   <crystal>
    <varray name="basis" >
     <v>       6.30740000       0.00000000       0.00000000 </v>
     <v>       0.00000000       6.30740000       0.00000000 </v>
     <v>       0.00000000       0.00000000       6.30740000 </v>
    </varray>
    <i name="volume">    250.92915337 </i>
    <varray name="rec_basis" >
     <v>       0.15854393       0.00000000       0.00000000 </v>
     <v>       0.00000000       0.15854393       0.00000000 </v>
     <v>       0.00000000       0.00000000       0.15854393 </v>
    </varray>
   </crystal>
   <varray name="positions" >
    <v>       0.94833584       0.02308347       0.03648454 </v>
    <v>       0.03655042       0.96435536       0.73057016 </v>
    <v>       0.25002048       0.90751198       0.06558849 </v>
    <v>       0.12387401       0.97501306       0.29715815 </v>
    <v>       0.78570274       0.06614788       0.76652549 </v>
    <v>       0.81670406       0.08175536       0.13052765 </v>
    <v>       0.00000000       0.50000000       0.50000000 </v>
    <v>       0.50000000       0.00000000       0.50000000 </v>
    <v>       0.50000000       0.50000000       0.00000000 </v>
    <v>       0.11924620       0.96703604       0.13773114 </v>
    <v>       0.92295171       0.01506423       0.83182521 </v>
    <v>       0.50000000       0.50000000       0.50000000 </v>
   </varray>
  </structure>
  <varray name="forces" >
   <v>      -0.15986536       0.09532869       0.04283292 </v>
   <v>       0.09328779      -0.07399003       0.09156831 </v>
   <v>      -0.05187371      -0.05841760      -0.03604527 </v>
   <v>       0.02716025       0.02696148       0.02197834 </v>
   <v>      -0.08149711      -0.03154306      -0.04080153 </v>
   <v>      -0.01747116       0.01718777      -0.02045422 </v>
   <v>       0.00358778      -0.00439858      -0.01966512 </v>
   <v>      -0.07651928       0.01615453       0.07558178 </v>
   <v>       0.01230437       0.01463513      -0.00682969 </v>
   <v>       0.08287004      -0.09874256      -0.08551322 </v>
   <v>       0.16993600       0.09276398      -0.01997234 </v>
   <v>      -0.00191963       0.00406025      -0.00267995 </v>
  </varray>
  <energy>
   <i name="e_fr_energy">   -148.12944959 </i>
   <i name="e_wo_entrp">   -148.12944959 </i>
   <i name="e_0_energy">   -148.12944959 </i>
  </energy>
  <time name="totalsc">   30.03   30.11</time>
 </calculation>
 <calculation>
  <scstep>
   <time name="total">    2.76    2.76</time>
   <energy>
    <i name="alphaZ">     28.77967674 </i>
    <i name="ewald">  -1139.92452761 </i>
    <i name="hartreedc">   -594.57456988 </i>
    <i name="XCdc">    -35.53815154 </i>
    <i name="pawpsdc">   3293.54370386 </i>
    <i name="pawaedc">  -3218.53690126 </i>
    <i name="eentropy">     -0.00000000 </i>
    <i name="bandstr">   -262.17866258 </i>
    <i name="atom">   1780.36699914 </i>
    <i name="e_fr_energy">   -148.06243314 </i>
    <i name="e_wo_entrp">   -148.06243314 </i>
    <i name="e_0_energy">   -148.06243314 </i>
   </energy>
  </scstep>
  <scstep>
   <time name="total">    2.76    2.77</time>
   <energy>
    <i name="e_fr_energy">   -148.11657681 </i>
    <i name="e_wo_entrp">   -148.11657681 </i>
    <i name="e_0_energy">   -148.11657681 </i>
   </energy>
  </scstep>
  <scstep>
   <time name="total">    2.76    2.77</time>
   <energy>
    <i name="e_fr_energy">   -148.12719082 </i>
    <i name="e_wo_entrp">   -148.12719082 </i>
    <i name="e_0_energy">   -148.12719082 </i>
   </energy>
  </scstep>
  <scstep>
   <time name="total">    2.77    2.77</time>
   <energy>
    <i name="e_fr_energy">   -148.12872900 </i>
    <i name="e_wo_entrp">   -148.12872900 </i>
    <i name="e_0_energy">   -148.12872900 </i>
   </energy>
  </scstep>
  <scstep>
   <time name="total">    2.76    2.77</time>
   <energy>
    <i name="e_fr_energy">   -148.12902296 </i>
    <i name="e_wo_entrp">   -148.12902296 </i>
    <i name="e_0_energy">   -148.12902296 </i>
   </energy>
  </scstep>
  <scstep>
   <time name="total">    2.76    2.77</time>
   <energy>
    <i name="e_fr_energy">   -148.12909030 </i>
    <i name="e_wo_entrp">   -148.12909030 </i>
    <i name="e_0_energy">   -148.12909030 </i>
   </energy>
  </scstep>
  <scstep>
   <time name="total">    2.77    2.77</time>
   <energy>
    <i name="e_fr_energy">   -148.12911072 </i>
    <i name="e_wo_entrp">   -148.12911072 </i>
    <i name="e_0_energy">   -148.12911072 </i>
   </energy>
  </scstep>
  <scstep>
   <time name="total">    2.76    2.77</time>
   <energy>
    <i name="e_fr_energy">   -148.12911702 </i>
    <i name="e_wo_entrp">   -148.12911702 </i>
    <i name="e_0_energy">   -148.12911702 </i>
   </energy>
  </scstep>
  <scstep>
   <time name="total">    3.08    3.09</time>
   <energy>
    <i name="alphaZ">     28.77967674 </i>
    <i name="ewald">  -1139.92452761 </i>
    <i name="hartreedc">   -594.64293580 </i>
    <i name="XCdc">    -35.53140825 </i>
    <i name="pawpsdc">   3276.40933041 </i>
    <i name="pawaedc">  -3201.40323438 </i>
    <i name="eentropy">     -0.00000000 </i>
    <i name="bandstr">   -262.18301888 </i>
    <i name="atom">   1780.36699914 </i>
    <i name="e_fr_energy">   -148.12911863 </i>
    <i name="e_wo_entrp">   -148.12911863 </i>
    <i name="e_0_energy">   -148.12911863 </i>
   </energy>
  </scstep>
  <structure>
   <crystal>
    <varray name="basis" >
     <v>       6.30740000       0.00000000       0.00000000 </v>
     <v>       0.00000000       6.30740000       0.00000000 </v>
     <v>       0.00000000       0.00000000       6.30740000 </v>
    </varray>
    <i name="volume">    250.92915337 </i>
    <varray name="rec_basis" >
     <v>       0.15854393       0.00000000       0.00000000 </v>
     <v>       0.00000000       0.15854393       0.00000000 </v>
     <v>       0.00000000       0.00000000       0.15854393 </v>
    </varray>
   </crystal>
   <varray name="positions" >
    <v>       0.94747719       0.02362037       0.03665514 </v>
    <v>       0.03696243       0.96394029       0.73138056 </v>
    <v>       0.24945037       0.90721096       0.06554278 </v>
    <v>       0.12413106       0.97515461       0.29700053 </v>
    <v>       0.78545306       0.06580300       0.76634310 </v>
    <v>       0.81678557       0.08178198       0.13024398 </v>
    <v>       0.00000000       0.50000000       0.50000000 </v>
    <v>       0.50000000       0.00000000       0.50000000 </v>
    <v>       0.50000000       0.50000000       0.00000000 </v>
    <v>       0.11947549       0.96646578       0.13698383 </v>
    <v>       0.92407601       0.01578161       0.83193944 </v>
    <v>       0.50000000       0.50000000       0.50000000 </v>
   </varray>
  </structure>
  <varray name="forces" >
   <v>       0.43230781      -0.13678074      -0.05153308 </v>
   <v>       0.21434105      -0.11793963       0.00790015 </v>
   <v>       0.15751488      -0.15570148      -0.19750079 </v>
   <v>       0.04374622       0.00198098      -0.15297758 </v>
   <v>       0.14591705      -0.11069959       0.01358970 </v>
   <v>      -0.19546389       0.10173600       0.10820793 </v>
   <v>       0.00300223      -0.00315830      -0.01900363 </v>
   <v>      -0.07082455       0.01689863       0.07996463 </v>
   <v>       0.01446552       0.01323030      -0.00689689 </v>
   <v>      -0.39833634       0.12659029       0.28815392 </v>
   <v>      -0.34453184       0.26011506      -0.06709861 </v>
   <v>      -0.00213815       0.00372849      -0.00280575 </v>
  </varray>
  <energy>
   <i name="e_fr_energy">   -148.12911863 </i>
   <i name="e_wo_entrp">   -148.12911863 </i>
   <i name="e_0_energy">   -148.12911863 </i>
  </energy>
  <time name="totalsc">   27.25   27.32</time>
 </calculation>
 <calculation>
  <scstep>
   <time name="total">    2.76    2.76</time>
   <energy>
    <i name="alphaZ">     28.77967674 </i>
    <i name="ewald">  -1139.93577506 </i>
    <i name="hartreedc">   -594.58939404 </i>
    <i name="XCdc">    -35.53388990 </i>
    <i name="pawpsdc">   3279.79503704 </i>
    <i name="pawaedc">  -3204.78814683 </i>
    <i name="eentropy">     -0.00000000 </i>
    <i name="bandstr">   -262.20644807 </i>
    <i name="atom">   1780.36699914 </i>
    <i name="e_fr_energy">   -148.11194100 </i>
    <i name="e_wo_entrp">   -148.11194100 </i>
    <i name="e_0_energy">   -148.11194100 </i>
   </energy>
  </scstep>
  <scstep>
   <time name="total">    2.77    2.77</time>
   <energy>
    <i name="e_fr_energy">   -148.12717954 </i>
    <i name="e_wo_entrp">   -148.12717954 </i>
    <i name="e_0_energy">   -148.12717954 </i>
   </energy>
  </scstep>
  <scstep>
   <time name="total">    2.76    2.77</time>
   <energy>
    <i name="e_fr_energy">   -148.13014855 </i>
    <i name="e_wo_entrp">   -148.13014855 </i>
    <i name="e_0_energy">   -148.13014855 </i>
   </energy>
  </scstep>
  <scstep>
   <time name="total">    2.77    2.77</time>
   <energy>
    <i name="e_fr_energy">   -148.13057872 </i>
    <i name="e_wo_entrp">   -148.13057872 </i>
    <i name="e_0_energy">   -148.13057872 </i>
   </energy>
  </scstep>
  <scstep>
   <time name="total">    2.76    2.77</time>
   <energy>
    <i name="e_fr_energy">   -148.13066072 </i>
    <i name="e_wo_entrp">   -148.13066072 </i>
    <i name="e_0_energy">   -148.13066072 </i>
   </energy>
  </scstep>
  <scstep>
   <time name="total">    2.76    2.77</time>
   <energy>
    <i name="e_fr_energy">   -148.13067923 </i>
    <i name="e_wo_entrp">   -148.13067923 </i>
    <i name="e_0_energy">   -148.13067923 </i>
   </energy>
  </scstep>
  <scstep>
   <time name="total">    2.77    2.77</time>
   <energy>
    <i name="e_fr_energy">   -148.13068488 </i>
    <i name="e_wo_entrp">   -148.13068488 </i>
    <i name="e_0_energy">   -148.13068488 </i>
   </energy>
  </scstep>
  <scstep>
   <time name="total">    3.09    3.09</time>
   <energy>
    <i name="alphaZ">     28.77967674 </i>
    <i name="ewald">  -1139.93577506 </i>
    <i name="hartreedc">   -594.59730768 </i>
    <i name="XCdc">    -35.53475933 </i>
    <i name="pawpsdc">   3277.16204154 </i>
    <i name="pawaedc">  -3202.15606376 </i>
    <i name="eentropy">     -0.00000000 </i>
    <i name="bandstr">   -262.21549823 </i>
    <i name="atom">   1780.36699914 </i>
    <i name="e_fr_energy">   -148.13068664 </i>
    <i name="e_wo_entrp">   -148.13068664 </i>
    <i name="e_0_energy">   -148.13068664 </i>
   </energy>
  </scstep>
  <structure>
   <crystal>
    <varray name="basis" >
     <v>       6.30740000       0.00000000       0.00000000 </v>
     <v>       0.00000000       6.30740000       0.00000000 </v>
     <v>       0.00000000       0.00000000       6.30740000 </v>
    </varray>
    <i name="volume">    250.92915337 </i>
    <varray name="rec_basis" >
     <v>       0.15854393       0.00000000       0.00000000 </v>
     <v>       0.00000000       0.15854393       0.00000000 </v>
     <v>       0.00000000       0.00000000       0.15854393 </v>
    </varray>
   </crystal>
   <varray name="positions" >
    <v>       0.94793234       0.02333577       0.03656471 </v>
    <v>       0.03674403       0.96416031       0.73095099 </v>
    <v>       0.24975257       0.90737052       0.06556701 </v>
    <v>       0.12399480       0.97507957       0.29708408 </v>
    <v>       0.78558541       0.06598581       0.76643978 </v>
    <v>       0.81674236       0.08176787       0.13039435 </v>
    <v>       0.00000000       0.50000000       0.50000000 </v>
    <v>       0.50000000       0.00000000       0.50000000 </v>
    <v>       0.50000000       0.50000000       0.00000000 </v>
    <v>       0.11935395       0.96676806       0.13737996 </v>
    <v>       0.92348004       0.01540134       0.83187889 </v>
    <v>       0.50000000       0.50000000       0.50000000 </v>
   </varray>
  </structure>
  <varray name="forces" >
   <v>       0.11885144      -0.01338283       0.00013058 </v>
   <v>       0.15018935      -0.09455510       0.05225219 </v>
   <v>       0.04491566      -0.10345364      -0.11130210 </v>
   <v>       0.03477817       0.01547071      -0.06071798 </v>
   <v>       0.02579864      -0.06985362      -0.01482707 </v>
   <v>      -0.10004889       0.05637293       0.03924873 </v>
   <v>       0.00355609      -0.00409046      -0.01934092 </v>
   <v>      -0.07412611       0.01651596       0.07773964 </v>
   <v>       0.01308272       0.01373425      -0.00704770 </v>
   <v>      -0.14217764       0.00618156       0.08973057 </v>
   <v>      -0.07257851       0.17328916      -0.04315332 </v>
   <v>      -0.00224091       0.00377107      -0.00271261 </v>
  </varray>
  <energy>
   <i name="e_fr_energy">   -148.13068664 </i>
   <i name="e_wo_entrp">   -148.13068664 </i>
   <i name="e_0_energy">   -148.13068664 </i>
  </energy>
  <time name="totalsc">   24.50   24.55</time>
 </calculation>
 <calculation>
  <scstep>
   <time name="total">    2.76    2.76</time>
   <energy>
    <i name="alphaZ">     28.77967674 </i>
    <i name="ewald">  -1140.00295493 </i>
    <i name="hartreedc">   -594.57337875 </i>
    <i name="XCdc">    -35.53777400 </i>
    <i name="pawpsdc">   3279.98110026 </i>
    <i name="pawaedc">  -3204.97490933 </i>
    <i name="eentropy">     -0.00000000 </i>
    <i name="bandstr">   -262.15591243 </i>
    <i name="atom">   1780.36699914 </i>
    <i name="e_fr_energy">   -148.11715330 </i>
    <i name="e_wo_entrp">   -148.11715330 </i>
    <i name="e_0_energy">   -148.11715330 </i>
   </energy>
  </scstep>
  <scstep>
   <time name="total">    2.76    2.77</time>
   <energy>
    <i name="e_fr_energy">   -148.13011320 </i>
    <i name="e_wo_entrp">   -148.13011320 </i>
    <i name="e_0_energy">   -148.13011320 </i>
   </energy>
  </scstep>
  <scstep>
   <time name="total">    2.77    2.77</time>
   <energy>
    <i name="e_fr_energy">   -148.13235342 </i>
    <i name="e_wo_entrp">   -148.13235342 </i>
    <i name="e_0_energy">   -148.13235342 </i>
   </energy>
  </scstep>
  <scstep>
   <time name="total">    2.77    2.77</time>
   <energy>
    <i name="e_fr_energy">   -148.13270131 </i>
    <i name="e_wo_entrp">   -148.13270131 </i>
    <i name="e_0_energy">   -148.13270131 </i>
   </energy>
  </scstep>
  <scstep>
   <time name="total">    2.76    2.77</time>
   <energy>
    <i name="e_fr_energy">   -148.13276983 </i>
    <i name="e_wo_entrp">   -148.13276983 </i>
    <i name="e_0_energy">   -148.13276983 </i>
   </energy>
  </scstep>
  <scstep>
   <time name="total">    2.76    2.77</time>
   <energy>
    <i name="e_fr_energy">   -148.13278672 </i>
    <i name="e_wo_entrp">   -148.13278672 </i>
    <i name="e_0_energy">   -148.13278672 </i>
   </energy>
  </scstep>
  <scstep>
   <time name="total">    2.79    2.79</time>
   <energy>
    <i name="e_fr_energy">   -148.13279208 </i>
    <i name="e_wo_entrp">   -148.13279208 </i>
    <i name="e_0_energy">   -148.13279208 </i>
   </energy>
  </scstep>
  <scstep>
   <time name="total">    3.08    3.09</time>
   <energy>
    <i name="alphaZ">     28.77967674 </i>
    <i name="ewald">  -1140.00295493 </i>
    <i name="hartreedc">   -594.58221425 </i>
    <i name="XCdc">    -35.54016500 </i>
    <i name="pawpsdc">   3276.60949665 </i>
    <i name="pawaedc">  -3201.60308646 </i>
    <i name="eentropy">     -0.00000000 </i>
    <i name="bandstr">   -262.16054555 </i>
    <i name="atom">   1780.36699914 </i>
    <i name="e_fr_energy">   -148.13279367 </i>
    <i name="e_wo_entrp">   -148.13279367 </i>
    <i name="e_0_energy">   -148.13279367 </i>
   </energy>
  </scstep>
  <structure>
   <crystal>
    <varray name="basis" >
     <v>       6.30740000       0.00000000       0.00000000 </v>
     <v>       0.00000000       6.30740000       0.00000000 </v>
     <v>       0.00000000       0.00000000       6.30740000 </v>
    </varray>
    <i name="volume">    250.92915337 </i>
    <varray name="rec_basis" >
     <v>       0.15854393       0.00000000       0.00000000 </v>
     <v>       0.00000000       0.15854393       0.00000000 </v>
     <v>       0.00000000       0.00000000       0.15854393 </v>
    </varray>
   </crystal>
   <varray name="positions" >
    <v>       0.94782110       0.02353959       0.03663913 </v>
    <v>       0.03725398       0.96377161       0.73141826 </v>
    <v>       0.24960381       0.90701178       0.06530191 </v>
    <v>       0.12418312       0.97517517       0.29688180 </v>
    <v>       0.78553376       0.06568204       0.76632786 </v>
    <v>       0.81655734       0.08190364       0.13035756 </v>
    <v>       0.00000000       0.50000000       0.50000000 </v>
    <v>       0.50000000       0.00000000       0.50000000 </v>
    <v>       0.50000000       0.50000000       0.00000000 </v>
    <v>       0.11914032       0.96653388       0.13725294 </v>
    <v>       0.92380867       0.01609489       0.83183345 </v>
    <v>       0.50000000       0.50000000       0.50000000 </v>
   </varray>
  </structure>
  <varray name="forces" >
   <v>       0.11532677      -0.01396514      -0.04257827 </v>
   <v>       0.10868332      -0.07065174       0.06412387 </v>
   <v>       0.00763550      -0.08603745      -0.09621969 </v>
   <v>       0.03160239       0.01276703      -0.04538649 </v>
   <v>       0.04399002      -0.06935099      -0.02206676 </v>
   <v>      -0.09972572       0.06079999       0.04611726 </v>
   <v>       0.00379553      -0.00174308      -0.01943700 </v>
   <v>      -0.07418793       0.01596346       0.07796056 </v>
   <v>       0.01293918       0.01496080      -0.00696335 </v>
   <v>      -0.08940001      -0.01013606       0.08991041 </v>
   <v>      -0.05864800       0.14360449      -0.04284185 </v>
   <v>      -0.00201104       0.00378868      -0.00261870 </v>
  </varray>
  <energy>
   <i name="e_fr_energy">   -148.13279367 </i>
   <i name="e_wo_entrp">   -148.13279367 </i>
   <i name="e_0_energy">   -148.13279367 </i>
  </energy>
  <time name="totalsc">   24.53   24.58</time>
 </calculation>
 <calculation>
  <scstep>
   <time name="total">    2.77    2.77</time>
   <energy>
    <i name="alphaZ">     28.77967674 </i>
    <i name="ewald">  -1140.27144319 </i>
    <i name="hartreedc">   -594.41957765 </i>
    <i name="XCdc">    -35.55540661 </i>
    <i name="pawpsdc">   3302.24547165 </i>
    <i name="pawaedc">  -3227.23540448 </i>
    <i name="eentropy">     -0.00000000 </i>
    <i name="bandstr">   -261.90636179 </i>
    <i name="atom">   1780.36699914 </i>
    <i name="e_fr_energy">   -147.99604619 </i>
    <i name="e_wo_entrp">   -147.99604619 </i>
    <i name="e_0_energy">   -147.99604619 </i>
   </energy>
  </scstep>
  <scstep>
   <time name="total">    2.76    2.77</time>
   <energy>
    <i name="e_fr_energy">   -148.11267687 </i>
    <i name="e_wo_entrp">   -148.11267687 </i>
    <i name="e_0_energy">   -148.11267687 </i>
   </energy>
  </scstep>
  <scstep>
   <time name="total">    2.76    2.77</time>
   <energy>
    <i name="e_fr_energy">   -148.13284659 </i>
    <i name="e_wo_entrp">   -148.13284659 </i>
    <i name="e_0_energy">   -148.13284659 </i>
   </energy>
  </scstep>
  <scstep>
   <time name="total">    2.77    2.77</time>
   <energy>
    <i name="e_fr_energy">   -148.13599249 </i>
    <i name="e_wo_entrp">   -148.13599249 </i>
    <i name="e_0_energy">   -148.13599249 </i>
   </energy>
  </scstep>
  <scstep>
   <time name="total">    2.76    2.77</time>
   <energy>
    <i name="e_fr_energy">   -148.13661398 </i>
    <i name="e_wo_entrp">   -148.13661398 </i>
    <i name="e_0_energy">   -148.13661398 </i>
   </energy>
  </scstep>
  <scstep>
   <time name="total">    2.76    2.77</time>
   <energy>
    <i name="e_fr_energy">   -148.13677009 </i>
    <i name="e_wo_entrp">   -148.13677009 </i>
    <i name="e_0_energy">   -148.13677009 </i>
   </energy>
  </scstep>
  <scstep>
   <time name="total">    2.77    2.77</time>
   <energy>
    <i name="e_fr_energy">   -148.13682046 </i>
    <i name="e_wo_entrp">   -148.13682046 </i>
    <i name="e_0_energy">   -148.13682046 </i>
   </energy>
  </scstep>
  <scstep>
   <time name="total">    2.76    2.77</time>
   <energy>
    <i name="e_fr_energy">   -148.13683552 </i>
    <i name="e_wo_entrp">   -148.13683552 </i>
    <i name="e_0_energy">   -148.13683552 </i>
   </energy>
  </scstep>
  <scstep>
   <time name="total">    3.10    3.11</time>
   <energy>
    <i name="alphaZ">     28.77967674 </i>
    <i name="ewald">  -1140.27144319 </i>
    <i name="hartreedc">   -594.47953552 </i>
    <i name="XCdc">    -35.55988509 </i>
    <i name="pawpsdc">   3274.52908822 </i>
    <i name="pawaedc">  -3199.52098194 </i>
    <i name="eentropy">     -0.00000000 </i>
    <i name="bandstr">   -261.98075746 </i>
    <i name="atom">   1780.36699914 </i>
    <i name="e_fr_energy">   -148.13683912 </i>
    <i name="e_wo_entrp">   -148.13683912 </i>
    <i name="e_0_energy">   -148.13683912 </i>
   </energy>
  </scstep>
  <structure>
   <crystal>
    <varray name="basis" >
     <v>       6.30740000       0.00000000       0.00000000 </v>
     <v>       0.00000000       6.30740000       0.00000000 </v>
     <v>       0.00000000       0.00000000       6.30740000 </v>
    </varray>
    <i name="volume">    250.92915337 </i>
    <varray name="rec_basis" >
     <v>       0.15854393       0.00000000       0.00000000 </v>
     <v>       0.00000000       0.15854393       0.00000000 </v>
     <v>       0.00000000       0.00000000       0.15854393 </v>
    </varray>
   </crystal>
   <varray name="positions" >
    <v>       0.94748736       0.02415103       0.03686239 </v>
    <v>       0.03878382       0.96260552       0.73282009 </v>
    <v>       0.24915751       0.90593554       0.06450663 </v>
    <v>       0.12474809       0.97546195       0.29627497 </v>
    <v>       0.78537880       0.06477073       0.76599209 </v>
    <v>       0.81600228       0.08231097       0.13024721 </v>
    <v>       0.00000000       0.50000000       0.50000000 </v>
    <v>       0.50000000       0.00000000       0.50000000 </v>
    <v>       0.50000000       0.50000000       0.00000000 </v>
    <v>       0.11849943       0.96583135       0.13687187 </v>
    <v>       0.92479456       0.01817551       0.83169711 </v>
    <v>       0.50000000       0.50000000       0.50000000 </v>
   </varray>
  </structure>
  <varray name="forces" >
   <v>       0.11181202      -0.01574730      -0.17168565 </v>
   <v>      -0.02358642       0.00576821       0.10550309 </v>
   <v>      -0.10326395      -0.03388285      -0.05160819 </v>
   <v>       0.02244222       0.00470743      -0.00198392 </v>
   <v>       0.10549954      -0.07176981      -0.03904567 </v>
   <v>      -0.09898183       0.07354927       0.06677668 </v>
   <v>       0.00477929       0.00402043      -0.02035783 </v>
   <v>      -0.07477355       0.01425967       0.07854930 </v>
   <v>       0.01214837       0.01776384      -0.00655378 </v>
   <v>       0.06450544      -0.05761428       0.09546448 </v>
   <v>      -0.01878146       0.05561329      -0.05248900 </v>
   <v>      -0.00179966       0.00333210      -0.00256951 </v>
  </varray>
  <energy>
   <i name="e_fr_energy">   -148.13683912 </i>
   <i name="e_wo_entrp">   -148.13683912 </i>
   <i name="e_0_energy">   -148.13683912 </i>
  </energy>
  <time name="totalsc">   27.27   27.34</time>
 </calculation>
 <calculation>
  <scstep>
   <time name="total">    2.76    2.76</time>
   <energy>
    <i name="alphaZ">     28.77967674 </i>
    <i name="ewald">  -1141.10550709 </i>
    <i name="hartreedc">   -593.87157100 </i>
    <i name="XCdc">    -35.60972832 </i>
    <i name="pawpsdc">   3377.91917578 </i>
    <i name="pawaedc">  -3302.89424761 </i>
    <i name="eentropy">     -0.00000000 </i>
    <i name="bandstr">   -261.15573132 </i>
    <i name="atom">   1780.36699914 </i>
    <i name="e_fr_energy">   -147.57093369 </i>
    <i name="e_wo_entrp">   -147.57093369 </i>
    <i name="e_0_energy">   -147.57093369 </i>
   </energy>
  </scstep>
  <scstep>
   <time name="total">    2.77    2.78</time>
   <energy>
    <i name="e_fr_energy">   -148.03670719 </i>
    <i name="e_wo_entrp">   -148.03670719 </i>
    <i name="e_0_energy">   -148.03670719 </i>
   </energy>
  </scstep>
  <scstep>
   <time name="total">    2.76    2.77</time>
   <energy>
    <i name="e_fr_energy">   -148.11778484 </i>
    <i name="e_wo_entrp">   -148.11778484 </i>
    <i name="e_0_energy">   -148.11778484 </i>
   </energy>
  </scstep>
  <scstep>
   <time name="total">    2.78    2.78</time>
   <energy>
    <i name="e_fr_energy">   -148.13060033 </i>
    <i name="e_wo_entrp">   -148.13060033 </i>
    <i name="e_0_energy">   -148.13060033 </i>
   </energy>
  </scstep>
  <scstep>
   <time name="total">    2.76    2.77</time>
   <energy>
    <i name="e_fr_energy">   -148.13318075 </i>
    <i name="e_wo_entrp">   -148.13318075 </i>
    <i name="e_0_energy">   -148.13318075 </i>
   </energy>
  </scstep>
  <scstep>
   <time name="total">    2.77    2.77</time>
   <energy>
    <i name="e_fr_energy">   -148.13385079 </i>
    <i name="e_wo_entrp">   -148.13385079 </i>
    <i name="e_0_energy">   -148.13385079 </i>
   </energy>
  </scstep>
  <scstep>
   <time name="total">    2.77    2.77</time>
   <energy>
    <i name="e_fr_energy">   -148.13407209 </i>
    <i name="e_wo_entrp">   -148.13407209 </i>
    <i name="e_0_energy">   -148.13407209 </i>
   </energy>
  </scstep>
  <scstep>
   <time name="total">    2.76    2.77</time>
   <energy>
    <i name="e_fr_energy">   -148.13413796 </i>
    <i name="e_wo_entrp">   -148.13413796 </i>
    <i name="e_0_energy">   -148.13413796 </i>
   </energy>
  </scstep>
  <scstep>
   <time name="total">    2.76    2.77</time>
   <energy>
    <i name="e_fr_energy">   -148.13415361 </i>
    <i name="e_wo_entrp">   -148.13415361 </i>
    <i name="e_0_energy">   -148.13415361 </i>
   </energy>
  </scstep>
  <scstep>
   <time name="total">    3.08    3.09</time>
   <energy>
    <i name="alphaZ">     28.77967674 </i>
    <i name="ewald">  -1141.10550709 </i>
    <i name="hartreedc">   -594.04365993 </i>
    <i name="XCdc">    -35.61302052 </i>
    <i name="pawpsdc">   3268.33418986 </i>
    <i name="pawaedc">  -3193.32095753 </i>
    <i name="eentropy">     -0.00000000 </i>
    <i name="bandstr">   -261.53187756 </i>
    <i name="atom">   1780.36699914 </i>
    <i name="e_fr_energy">   -148.13415689 </i>
    <i name="e_wo_entrp">   -148.13415689 </i>
    <i name="e_0_energy">   -148.13415689 </i>
   </energy>
  </scstep>
  <structure>
   <crystal>
    <varray name="basis" >
     <v>       6.30740000       0.00000000       0.00000000 </v>
     <v>       0.00000000       6.30740000       0.00000000 </v>
     <v>       0.00000000       0.00000000       6.30740000 </v>
    </varray>
    <i name="volume">    250.92915337 </i>
    <varray name="rec_basis" >
     <v>       0.15854393       0.00000000       0.00000000 </v>
     <v>       0.00000000       0.15854393       0.00000000 </v>
     <v>       0.00000000       0.00000000       0.15854393 </v>
    </varray>
   </crystal>
   <varray name="positions" >
    <v>       0.94681990       0.02537392       0.03730891 </v>
    <v>       0.04184350       0.96027334       0.73562374 </v>
    <v>       0.24826491       0.90378307       0.06291606 </v>
    <v>       0.12587802       0.97603552       0.29506131 </v>
    <v>       0.78506890       0.06294810       0.76532054 </v>
    <v>       0.81489215       0.08312562       0.13002652 </v>
    <v>       0.00000000       0.50000000       0.50000000 </v>
    <v>       0.50000000       0.00000000       0.50000000 </v>
    <v>       0.50000000       0.50000000       0.00000000 </v>
    <v>       0.11721765       0.96442629       0.13610973 </v>
    <v>       0.92676632       0.02233677       0.83142445 </v>
    <v>       0.50000000       0.50000000       0.50000000 </v>
   </varray>
  </structure>
  <varray name="forces" >
   <v>       0.11831619      -0.01696663      -0.42722065 </v>
   <v>      -0.31536885       0.18529080       0.20670989 </v>
   <v>      -0.31737731       0.06847527       0.03479155 </v>
   <v>       0.00627947      -0.01171632       0.07484917 </v>
[...]
       <r>    4.5608    0.0000 </r>
       <r>    4.7074    0.0000 </r>
       <r>    6.4982    0.0000 </r>
       <r>    7.5231    0.0000 </r>
       <r>    7.6732    0.0000 </r>
       <r>    7.9728    0.0000 </r>
       <r>    8.4837    0.0000 </r>
       <r>    8.7114    0.0000 </r>
      </set>
      <set comment="kpoint 35">
       <r>  -20.4336    1.0000 </r>
       <r>  -18.0506    1.0000 </r>
       <r>  -11.6440    1.0000 </r>
       <r>  -11.0435    1.0000 </r>
       <r>  -10.9640    1.0000 </r>
       <r>  -10.7402    1.0000 </r>
       <r>   -9.4602    1.0000 </r>
       <r>   -8.7604    1.0000 </r>
       <r>   -6.9821    1.0000 </r>
       <r>   -6.1111    1.0000 </r>
       <r>   -5.4250    1.0000 </r>
       <r>   -4.8854    1.0000 </r>
       <r>   -1.5384    1.0000 </r>
       <r>   -1.4288    1.0000 </r>
       <r>   -1.0272    1.0000 </r>
       <r>   -0.9604    1.0000 </r>
       <r>   -0.8212    1.0000 </r>
       <r>   -0.4165    1.0000 </r>
       <r>   -0.0953    1.0000 </r>
       <r>    0.1819    1.0000 </r>
       <r>    0.4595    1.0000 </r>
       <r>    1.4473    1.0000 </r>
       <r>    2.8816    0.0000 </r>
       <r>    2.9649    0.0000 </r>
       <r>    4.5632    0.0000 </r>
       <r>    4.7071    0.0000 </r>
       <r>    6.4994    0.0000 </r>
       <r>    7.5304    0.0000 </r>
       <r>    7.6800    0.0000 </r>
       <r>    7.9706    0.0000 </r>
       <r>    8.4839    0.0000 </r>
       <r>    8.7075    0.0000 </r>
      </set>
      <set comment="kpoint 36">
       <r>  -20.4335    1.0000 </r>
       <r>  -18.0501    1.0000 </r>
       <r>  -11.6584    1.0000 </r>
       <r>  -11.0316    1.0000 </r>
       <r>  -10.9293    1.0000 </r>
       <r>  -10.7435    1.0000 </r>
       <r>   -9.4565    1.0000 </r>
       <r>   -8.7587    1.0000 </r>
       <r>   -7.0016    1.0000 </r>
       <r>   -6.3897    1.0000 </r>
       <r>   -5.4085    1.0000 </r>
       <r>   -4.9008    1.0000 </r>
       <r>   -1.4429    1.0000 </r>
       <r>   -1.1334    1.0000 </r>
       <r>   -1.0962    1.0000 </r>
       <r>   -0.9227    1.0000 </r>
       <r>   -0.5016    1.0000 </r>
       <r>   -0.3805    1.0000 </r>
       <r>    0.1403    1.0000 </r>
       <r>    0.4276    1.0000 </r>
       <r>    0.4887    1.0000 </r>
       <r>    2.0518    1.0000 </r>
       <r>    2.6593    0.0000 </r>
       <r>    2.6891    0.0000 </r>
       <r>    2.7647    0.0000 </r>
       <r>    4.6108    0.0000 </r>
       <r>    6.3544    0.0000 </r>
       <r>    7.5977    0.0000 </r>
       <r>    7.8915    0.0000 </r>
       <r>    7.9302    0.0000 </r>
       <r>    8.6910    0.0000 </r>
       <r>    8.7415    0.0000 </r>
      </set>
     </set>
    </set>
   </array>
  </eigenvalues>
  <separator name="orbital magnetization" >
   <v name="MAGDIPOLOUT">      0.00000000      0.00000000      0.00000000</v>
  </separator>
  <dos>
   <i name="efermi">      2.28980423 </i>
   <total>
    <array>
     <dimension dim="1">gridpoints</dimension>
     <dimension dim="2">spin</dimension>
     <field>energy</field>
     <field>total</field>
     <field>integrated</field>
     <set>
      <set comment="spin 1">
       <r>   -21.8968     0.0000     0.0000 </r>
       <r>   -21.7898     0.0000     0.0000 </r>
       <r>   -21.6828     0.0000     0.0000 </r>
       <r>   -21.5758     0.0000     0.0000 </r>
       <r>   -21.4688     0.0000     0.0000 </r>
       <r>   -21.3618     0.0000     0.0000 </r>
       <r>   -21.2548     0.0000     0.0000 </r>
       <r>   -21.1478     0.0000     0.0000 </r>
       <r>   -21.0408     0.0000     0.0000 </r>
       <r>   -20.9339     0.0000     0.0000 </r>
       <r>   -20.8269     0.0000     0.0000 </r>
       <r>   -20.7199     0.0000     0.0000 </r>
       <r>   -20.6129     0.0000     0.0000 </r>
       <r>   -20.5059     0.4365     0.0467 </r>
       <r>   -20.3989    15.4476     1.6994 </r>
       <r>   -20.2919     2.8087     2.0000 </r>
       <r>   -20.1849     0.0005     2.0000 </r>
       <r>   -20.0779     0.0000     2.0000 </r>
       <r>   -19.9709     0.0000     2.0000 </r>
       <r>   -19.8639     0.0000     2.0000 </r>
       <r>   -19.7570     0.0000     2.0000 </r>
       <r>   -19.6500     0.0000     2.0000 </r>
       <r>   -19.5430     0.0000     2.0000 </r>
       <r>   -19.4360     0.0000     2.0000 </r>
       <r>   -19.3290     0.0000     2.0000 </r>
       <r>   -19.2220     0.0000     2.0000 </r>
       <r>   -19.1150     0.0000     2.0000 </r>
       <r>   -19.0080     0.0000     2.0000 </r>
       <r>   -18.9010     0.0000     2.0000 </r>
       <r>   -18.7940     0.0000     2.0000 </r>
       <r>   -18.6871     0.0000     2.0000 </r>
       <r>   -18.5801     0.0000     2.0000 </r>
       <r>   -18.4731     0.0000     2.0000 </r>
       <r>   -18.3661     0.0000     2.0000 </r>
       <r>   -18.2591     0.0000     2.0000 </r>
       <r>   -18.1521     0.0271     2.0029 </r>
       <r>   -18.0451     9.5733     3.0272 </r>
       <r>   -17.9381     9.0712     3.9977 </r>
       <r>   -17.8311     0.0217     4.0000 </r>
       <r>   -17.7241     0.0000     4.0000 </r>
       <r>   -17.6171     0.0000     4.0000 </r>
       <r>   -17.5102     0.0000     4.0000 </r>
       <r>   -17.4032     0.0000     4.0000 </r>
       <r>   -17.2962     0.0000     4.0000 </r>
       <r>   -17.1892     0.0000     4.0000 </r>
       <r>   -17.0822     0.0000     4.0000 </r>
       <r>   -16.9752     0.0000     4.0000 </r>
       <r>   -16.8682     0.0000     4.0000 </r>
       <r>   -16.7612     0.0000     4.0000 </r>
       <r>   -16.6542     0.0000     4.0000 </r>
       <r>   -16.5472     0.0000     4.0000 </r>
       <r>   -16.4402     0.0000     4.0000 </r>
       <r>   -16.3333     0.0000     4.0000 </r>
       <r>   -16.2263     0.0000     4.0000 </r>
       <r>   -16.1193     0.0000     4.0000 </r>
       <r>   -16.0123     0.0000     4.0000 </r>
       <r>   -15.9053     0.0000     4.0000 </r>
       <r>   -15.7983     0.0000     4.0000 </r>
       <r>   -15.6913     0.0000     4.0000 </r>
       <r>   -15.5843     0.0000     4.0000 </r>
       <r>   -15.4773     0.0000     4.0000 </r>
       <r>   -15.3703     0.0000     4.0000 </r>
       <r>   -15.2634     0.0000     4.0000 </r>
       <r>   -15.1564     0.0000     4.0000 </r>
       <r>   -15.0494     0.0000     4.0000 </r>
       <r>   -14.9424     0.0000     4.0000 </r>
       <r>   -14.8354     0.0000     4.0000 </r>
       <r>   -14.7284     0.0000     4.0000 </r>
       <r>   -14.6214     0.0000     4.0000 </r>
       <r>   -14.5144     0.0000     4.0000 </r>
       <r>   -14.4074     0.0000     4.0000 </r>
       <r>   -14.3004     0.0000     4.0000 </r>
       <r>   -14.1934     0.0000     4.0000 </r>
       <r>   -14.0865     0.0000     4.0000 </r>
       <r>   -13.9795     0.0000     4.0000 </r>
       <r>   -13.8725     0.0000     4.0000 </r>
       <r>   -13.7655     0.0000     4.0000 </r>
       <r>   -13.6585     0.0000     4.0000 </r>
       <r>   -13.5515     0.0000     4.0000 </r>
       <r>   -13.4445     0.0000     4.0000 </r>
       <r>   -13.3375     0.0000     4.0000 </r>
       <r>   -13.2305     0.0000     4.0000 </r>
       <r>   -13.1235     0.0000     4.0000 </r>
       <r>   -13.0165     0.0000     4.0000 </r>
       <r>   -12.9096     0.0000     4.0000 </r>
       <r>   -12.8026     0.0000     4.0000 </r>
       <r>   -12.6956     0.0000     4.0000 </r>
       <r>   -12.5886     0.0000     4.0000 </r>
       <r>   -12.4816     0.0000     4.0000 </r>
       <r>   -12.3746     0.0000     4.0000 </r>
       <r>   -12.2676     0.0000     4.0000 </r>
       <r>   -12.1606     0.0000     4.0000 </r>
       <r>   -12.0536     0.0000     4.0000 </r>
       <r>   -11.9466     0.0000     4.0000 </r>
       <r>   -11.8396     0.0036     4.0004 </r>
       <r>   -11.7327     1.2932     4.1387 </r>
       <r>   -11.6257    12.4900     5.4751 </r>
       <r>   -11.5187     4.8736     5.9965 </r>
       <r>   -11.4117     0.0329     6.0000 </r>
       <r>   -11.3047     0.3921     6.0420 </r>
       <r>   -11.1977     5.4940     6.6298 </r>
       <r>   -11.0907     7.9444     7.4797 </r>
       <r>   -10.9837     7.8611     8.3208 </r>
       <r>   -10.8767    11.1030     9.5087 </r>
       <r>   -10.7697     6.5727    10.2119 </r>
       <r>   -10.6628    12.5563    11.5554 </r>
       <r>   -10.5558     4.0808    11.9920 </r>
       <r>   -10.4488     0.0750    12.0000 </r>
       <r>   -10.3418     0.0000    12.0000 </r>
       <r>   -10.2348     0.0000    12.0000 </r>
       <r>   -10.1278     0.0000    12.0000 </r>
       <r>   -10.0208     0.0000    12.0000 </r>
       <r>    -9.9138     0.0000    12.0000 </r>
       <r>    -9.8068     0.0000    12.0000 </r>
       <r>    -9.6998     0.0000    12.0000 </r>
       <r>    -9.5928     0.0058    12.0006 </r>
       <r>    -9.4859     6.1001    12.6533 </r>
       <r>    -9.3789    12.4783    13.9883 </r>
       <r>    -9.2719     0.1090    14.0000 </r>
       <r>    -9.1649     0.0000    14.0000 </r>
       <r>    -9.0579     0.0000    14.0000 </r>
       <r>    -8.9509     0.0000    14.0000 </r>
       <r>    -8.8439     0.2780    14.0297 </r>
       <r>    -8.7369    14.6352    15.5956 </r>
       <r>    -8.6299     3.7789    15.9999 </r>
       <r>    -8.5229     0.0011    16.0000 </r>
       <r>    -8.4159     0.0000    16.0000 </r>
       <r>    -8.3090     0.0000    16.0000 </r>
       <r>    -8.2020     0.0000    16.0000 </r>
       <r>    -8.0950     0.0000    16.0000 </r>
       <r>    -7.9880     0.0000    16.0000 </r>
       <r>    -7.8810     0.0000    16.0000 </r>
       <r>    -7.7740     0.0000    16.0000 </r>
       <r>    -7.6670     0.0000    16.0000 </r>
       <r>    -7.5600     0.0000    16.0000 </r>
       <r>    -7.4530     0.0000    16.0000 </r>
       <r>    -7.3460     0.0000    16.0000 </r>
       <r>    -7.2391     0.0000    16.0000 </r>
       <r>    -7.1321     0.0001    16.0000 </r>
       <r>    -7.0251     0.5325    16.0570 </r>
       <r>    -6.9181    13.4263    17.4935 </r>
       <r>    -6.8111     4.7248    17.9990 </r>
       <r>    -6.7041     0.0096    18.0000 </r>
       <r>    -6.5971     0.0000    18.0000 </r>
       <r>    -6.4901     0.0007    18.0001 </r>
       <r>    -6.3831     0.1671    18.0179 </r>
       <r>    -6.2761     0.1242    18.0312 </r>
       <r>    -6.1691     0.0976    18.0417 </r>
       <r>    -6.0622     1.5205    18.2044 </r>
       <r>    -5.9552     0.1356    18.2189 </r>
       <r>    -5.8482     1.1518    18.3421 </r>
       <r>    -5.7412     2.9536    18.6581 </r>
       <r>    -5.6342     0.3409    18.6946 </r>
       <r>    -5.5272     2.2973    18.9404 </r>
       <r>    -5.4202    12.9141    20.3220 </r>
       <r>    -5.3132     9.1848    21.3047 </r>
       <r>    -5.2062     0.3414    21.3413 </r>
       <r>    -5.0992     3.1211    21.6752 </r>
       <r>    -4.9922     0.9601    21.7779 </r>
       <r>    -4.8853     4.5420    22.2639 </r>
       <r>    -4.7783    13.9885    23.7605 </r>
       <r>    -4.6713     1.7964    23.9527 </r>
       <r>    -4.5643     0.1500    23.9687 </r>
       <r>    -4.4573     0.0000    23.9687 </r>
       <r>    -4.3503     0.0000    23.9688 </r>
       <r>    -4.2433     0.0122    23.9701 </r>
       <r>    -4.1363     0.2513    23.9969 </r>
       <r>    -4.0293     0.0286    24.0000 </r>
       <r>    -3.9223     0.0000    24.0000 </r>
       <r>    -3.8154     0.0000    24.0000 </r>
       <r>    -3.7084     0.0000    24.0000 </r>
       <r>    -3.6014     0.0000    24.0000 </r>
       <r>    -3.4944     0.0000    24.0000 </r>
       <r>    -3.3874     0.0000    24.0000 </r>
       <r>    -3.2804     0.0000    24.0000 </r>
       <r>    -3.1734     0.0000    24.0000 </r>
       <r>    -3.0664     0.0000    24.0000 </r>
       <r>    -2.9594     0.0000    24.0000 </r>
       <r>    -2.8524     0.0000    24.0000 </r>
       <r>    -2.7454     0.0000    24.0000 </r>
       <r>    -2.6385     0.0121    24.0013 </r>
       <r>    -2.5315     0.8662    24.0940 </r>
       <r>    -2.4245     5.2536    24.6561 </r>
       <r>    -2.3175     5.0392    25.1952 </r>
       <r>    -2.2105     2.3592    25.4476 </r>
       <r>    -2.1035     0.4596    25.4968 </r>
       <r>    -1.9965     0.0301    25.5000 </r>
       <r>    -1.8895     0.0223    25.5024 </r>
       <r>    -1.7825     2.4444    25.7639 </r>
       <r>    -1.6755     8.5112    26.6745 </r>
       <r>    -1.5685    10.5477    27.8030 </r>
       <r>    -1.4616     8.9644    28.7622 </r>
       <r>    -1.3546     6.3036    29.4366 </r>
       <r>    -1.2476     4.1737    29.8831 </r>
       <r>    -1.1406     4.1960    30.3321 </r>
       <r>    -1.0336     4.6750    30.8322 </r>
       <r>    -0.9266     5.4307    31.4133 </r>
       <r>    -0.8196     6.3439    32.0920 </r>
       <r>    -0.7126     3.8940    32.5086 </r>
       <r>    -0.6056     5.8961    33.1395 </r>
       <r>    -0.4986    10.1493    34.2253 </r>
       <r>    -0.3916     9.6920    35.2623 </r>
       <r>    -0.2847     8.4151    36.1626 </r>
       <r>    -0.1777    10.0176    37.2344 </r>
       <r>    -0.0707    13.3306    38.6607 </r>
       <r>     0.0363    10.7169    39.8073 </r>
       <r>     0.1433     9.7267    40.8480 </r>
       <r>     0.2503    12.9724    42.2359 </r>
       <r>     0.3573     3.3253    42.5917 </r>
       <r>     0.4643     1.6585    42.7691 </r>
       <r>     0.5713     1.3475    42.9133 </r>
       <r>     0.6783     2.0642    43.1341 </r>
       <r>     0.7852     3.0941    43.4652 </r>
       <r>     0.8922     1.7583    43.6533 </r>
       <r>     0.9992     0.3197    43.6875 </r>
       <r>     1.1062     0.0002    43.6875 </r>
       <r>     1.2132     0.0206    43.6897 </r>
       <r>     1.3202     0.4132    43.7339 </r>
       <r>     1.4272     1.2950    43.8725 </r>
       <r>     1.5342     0.8914    43.9678 </r>
       <r>     1.6412     0.0085    43.9687 </r>
       <r>     1.7482     0.0000    43.9688 </r>
       <r>     1.8552     0.0000    43.9688 </r>
       <r>     1.9621     0.0016    43.9689 </r>
       <r>     2.0691     0.1993    43.9902 </r>
       <r>     2.1761     0.0911    44.0000 </r>
       <r>     2.2831     0.0001    44.0000 </r>
       <r>     2.3901     0.0000    44.0000 </r>
       <r>     2.4971     0.0000    44.0000 </r>
       <r>     2.6041     0.0197    44.0021 </r>
       <r>     2.7111     0.4846    44.0540 </r>
       <r>     2.8181     0.4219    44.0991 </r>
       <r>     2.9251     2.0456    44.3180 </r>
       <r>     3.0321     1.6739    44.4970 </r>
       <r>     3.1390     3.7046    44.8934 </r>
       <r>     3.2460     2.1472    45.1231 </r>
       <r>     3.3530     2.4371    45.3839 </r>
       <r>     3.4600     0.7957    45.4690 </r>
       <r>     3.5670     0.2867    45.4997 </r>
       <r>     3.6740     0.0030    45.5000 </r>
       <r>     3.7810     0.0000    45.5000 </r>
       <r>     3.8880     0.0000    45.5000 </r>
       <r>     3.9950     0.0000    45.5000 </r>
       <r>     4.1020     0.0000    45.5000 </r>
       <r>     4.2089     0.0000    45.5000 </r>
       <r>     4.3159     0.0000    45.5000 </r>
       <r>     4.4229     0.0242    45.5026 </r>
       <r>     4.5299     3.6968    45.8981 </r>
       <r>     4.6369    11.6536    47.1449 </r>
       <r>     4.7439     8.9571    48.1033 </r>
       <r>     4.8509     4.3601    48.5698 </r>
       <r>     4.9579     7.2942    49.3502 </r>
       <r>     5.0649     4.3442    49.8150 </r>
       <r>     5.1719     4.6637    50.3139 </r>
       <r>     5.2789     1.7180    50.4977 </r>
       <r>     5.3858     0.0211    50.5000 </r>
       <r>     5.4928     0.0013    50.5001 </r>
       <r>     5.5998     0.1908    50.5205 </r>
       <r>     5.7068     0.1000    50.5312 </r>
       <r>     5.8138     0.0329    50.5348 </r>
       <r>     5.9208     1.1317    50.6558 </r>
       <r>     6.0278     0.5831    50.7182 </r>
       <r>     6.1348     0.5093    50.7727 </r>
       <r>     6.2418     3.3490    51.1310 </r>
       <r>     6.3488     4.5805    51.6211 </r>
       <r>     6.4558     4.8936    52.1447 </r>
       <r>     6.5627     7.3817    52.9345 </r>
       <r>     6.6697     5.6012    53.5337 </r>
       <r>     6.7767     3.7923    53.9395 </r>
       <r>     6.8837     3.0247    54.2631 </r>
       <r>     6.9907     2.7925    54.5619 </r>
       <r>     7.0977     5.9200    55.1952 </r>
       <r>     7.2047     7.2339    55.9692 </r>
       <r>     7.3117     4.8236    56.4853 </r>
       <r>     7.4187     8.3702    57.3808 </r>
       <r>     7.5257     8.0522    58.2423 </r>
       <r>     7.6327     6.1891    58.9045 </r>
       <r>     7.7396     6.9276    59.6457 </r>
       <r>     7.8466     5.8724    60.2740 </r>
       <r>     7.9536     5.8999    60.9052 </r>
       <r>     8.0606     6.4516    61.5955 </r>
       <r>     8.1676     3.5950    61.9801 </r>
       <r>     8.2746     4.9260    62.5071 </r>
       <r>     8.3816     4.3279    62.9702 </r>
       <r>     8.4886     4.6474    63.4674 </r>
       <r>     8.5956     3.0032    63.7887 </r>
       <r>     8.7026     0.9392    63.8892 </r>
       <r>     8.8095     1.0246    63.9988 </r>
       <r>     8.9165     0.0108    64.0000 </r>
       <r>     9.0235     0.0000    64.0000 </r>
       <r>     9.1305     0.0000    64.0000 </r>
       <r>     9.2375     0.0000    64.0000 </r>
       <r>     9.3445     0.0000    64.0000 </r>
       <r>     9.4515     0.0000    64.0000 </r>
       <r>     9.5585     0.0000    64.0000 </r>
       <r>     9.6655     0.0000    64.0000 </r>
       <r>     9.7725     0.0000    64.0000 </r>
       <r>     9.8795     0.0000    64.0000 </r>
       <r>     9.9864     0.0000    64.0000 </r>
       <r>    10.0934     0.0000    64.0000 </r>
       <r>    10.2004     0.0000    64.0000 </r>
      </set>
     </set>
    </array>
   </total>
  </dos>
 </calculation>
 <structure name="finalpos" >
  <crystal>
   <varray name="basis" >
    <v>       6.30740000       0.00000000       0.00000000 </v>
    <v>       0.00000000       6.30740000       0.00000000 </v>
    <v>       0.00000000       0.00000000       6.30740000 </v>
   </varray>
   <i name="volume">    250.92915337 </i>
   <varray name="rec_basis" >
    <v>       0.15854393       0.00000000       0.00000000 </v>
    <v>       0.00000000       0.15854393       0.00000000 </v>
    <v>       0.00000000       0.00000000       0.15854393 </v>
   </varray>
  </crystal>
  <varray name="positions" >
   <v>       0.94669275       0.05432168      -0.00157022 </v>
   <v>       0.06899692       0.81080160       0.82473053 </v>
   <v>       0.18854240       0.93491789       0.17668345 </v>
   <v>       0.05352491       0.14954103       0.28319952 </v>
   <v>       0.85466838      -0.05665114       0.71435899 </v>
   <v>       0.82452590       0.17605697      -0.00317376 </v>
   <v>       0.00000000       0.50000000       0.50000000 </v>
   <v>       0.50000000       0.00000000       0.50000000 </v>
   <v>       0.50000000       0.50000000       0.00000000 </v>
   <v>       0.06873622       0.04122229       0.16503332 </v>
   <v>       0.96208809      -0.06976882       0.83356153 </v>
   <v>       0.50000000       0.50000000       0.50000000 </v>
  </varray>
  <varray name="selective"  type="logical" >
   <v type="logical" >  T  T  T </v>
   <v type="logical" >  T  T  T </v>
   <v type="logical" >  T  T  T </v>
   <v type="logical" >  T  T  T </v>
   <v type="logical" >  T  T  T </v>
   <v type="logical" >  T  T  T </v>
   <v type="logical" >  F  F  F </v>
   <v type="logical" >  F  F  F </v>
   <v type="logical" >  F  F  F </v>
   <v type="logical" >  T  T  T </v>
   <v type="logical" >  T  T  T </v>
   <v type="logical" >  F  F  F </v>
  </varray>
  <nose>
   <v>      -3.00000000       0.00000000       0.00010000       0.00010000 </v>
  </nose>
 </structure>
</modeling>
