  48  48   0   0
  0.2220505E+02  0.1463700E-08  0.8786000E-09  0.8288000E-09  0.5000000E-15
   1.0000000000000000E-004
  CAR 
 hexagonal-FASnI3                        
      9.07911528    -22.20687442  301      1.37494031      1.00000000
    -22.207  0.0000E+00  0.0000E+00
    -22.103  0.0000E+00  0.0000E+00
    -21.998  0.0000E+00  0.0000E+00
    -21.894  0.0000E+00  0.0000E+00
    -21.790  0.0000E+00  0.0000E+00
    -21.685  0.0000E+00  0.0000E+00
    -21.581  0.0000E+00  0.0000E+00
    -21.477  0.0000E+00  0.0000E+00
    -21.373  0.0000E+00  0.0000E+00
    -21.268  0.0000E+00  0.0000E+00
    -21.164  0.0000E+00  0.0000E+00
    -21.060  0.7499E-16  0.7821E-17
    -20.955  0.1569E-07  0.1637E-08
    -20.851  0.8528E-03  0.8894E-04
    -20.747  0.3681E-01  0.3928E-02
    -20.643  0.3698E-01  0.7784E-02
    -20.538  0.2069E-02  0.8000E-02
    -20.434  0.2178E-06  0.8000E-02
    -20.330  0.6347E-14  0.8000E-02
    -20.225  0.0000E+00  0.8000E-02
    -20.121  0.0000E+00  0.8000E-02
    -20.017  0.0000E+00  0.8000E-02
    -19.913  0.0000E+00  0.8000E-02
    -19.808  0.0000E+00  0.8000E-02
    -19.704  0.0000E+00  0.8000E-02
    -19.600  0.0000E+00  0.8000E-02
    -19.495  0.0000E+00  0.8000E-02
    -19.391  0.0000E+00  0.8000E-02
    -19.287  0.0000E+00  0.8000E-02
    -19.183  0.0000E+00  0.8000E-02
    -19.078  0.0000E+00  0.8000E-02
    -18.974  0.0000E+00  0.8000E-02
    -18.870  0.0000E+00  0.8000E-02
    -18.765  0.0000E+00  0.8000E-02
    -18.661  0.2373E-09  0.8000E-02
    -18.557  0.8884E-04  0.8009E-02
    -18.453  0.1945E-01  0.1004E-01
    -18.348  0.4813E-01  0.1506E-01
    -18.244  0.9027E-02  0.1600E-01
    -18.140  0.1221E-04  0.1600E-01
    -18.035  0.6389E-11  0.1600E-01
    -17.931  0.0000E+00  0.1600E-01
    -17.827  0.0000E+00  0.1600E-01
    -17.723  0.0000E+00  0.1600E-01
    -17.618  0.0000E+00  0.1600E-01
    -17.514  0.0000E+00  0.1600E-01
    -17.410  0.0000E+00  0.1600E-01
    -17.305  0.0000E+00  0.1600E-01
    -17.201  0.0000E+00  0.1600E-01
    -17.097  0.0000E+00  0.1600E-01
    -16.993  0.0000E+00  0.1600E-01
    -16.888  0.0000E+00  0.1600E-01
    -16.784  0.0000E+00  0.1600E-01
    -16.680  0.0000E+00  0.1600E-01
    -16.575  0.0000E+00  0.1600E-01
    -16.471  0.0000E+00  0.1600E-01
    -16.367  0.0000E+00  0.1600E-01
    -16.263  0.0000E+00  0.1600E-01
    -16.158  0.0000E+00  0.1600E-01
    -16.054  0.0000E+00  0.1600E-01
    -15.950  0.0000E+00  0.1600E-01
    -15.845  0.0000E+00  0.1600E-01
    -15.741  0.0000E+00  0.1600E-01
    -15.637  0.0000E+00  0.1600E-01
    -15.533  0.0000E+00  0.1600E-01
    -15.428  0.0000E+00  0.1600E-01
    -15.324  0.0000E+00  0.1600E-01
    -15.220  0.0000E+00  0.1600E-01
    -15.115  0.0000E+00  0.1600E-01
    -15.011  0.0000E+00  0.1600E-01
    -14.907  0.0000E+00  0.1600E-01
    -14.803  0.0000E+00  0.1600E-01
    -14.698  0.0000E+00  0.1600E-01
    -14.594  0.0000E+00  0.1600E-01
    -14.490  0.0000E+00  0.1600E-01
    -14.385  0.0000E+00  0.1600E-01
    -14.281  0.0000E+00  0.1600E-01
    -14.177  0.0000E+00  0.1600E-01
    -14.073  0.0000E+00  0.1600E-01
    -13.968  0.0000E+00  0.1600E-01
    -13.864  0.0000E+00  0.1600E-01
    -13.760  0.0000E+00  0.1600E-01
    -13.655  0.0000E+00  0.1600E-01
    -13.551  0.0000E+00  0.1600E-01
    -13.447  0.0000E+00  0.1600E-01
    -13.343  0.0000E+00  0.1600E-01
    -13.238  0.0000E+00  0.1600E-01
    -13.134  0.0000E+00  0.1600E-01
    -13.030  0.0000E+00  0.1600E-01
    -12.925  0.0000E+00  0.1600E-01
    -12.821  0.0000E+00  0.1600E-01
    -12.717  0.0000E+00  0.1600E-01
    -12.613  0.0000E+00  0.1600E-01
    -12.508  0.0000E+00  0.1600E-01
    -12.404  0.0000E+00  0.1600E-01
    -12.300  0.2366E-18  0.1600E-01
    -12.195  0.3061E-09  0.1600E-01
    -12.091  0.9551E-04  0.1601E-01
    -11.987  0.1958E-01  0.1805E-01
    -11.882  0.4543E-01  0.2279E-01
    -11.778  0.1158E-01  0.2400E-01
    -11.674  0.2813E-04  0.2400E-01
    -11.570  0.4436E-03  0.2405E-01
    -11.465  0.1072E-01  0.2516E-01
    -11.361  0.2127E-01  0.2738E-01
    -11.257  0.1803E-01  0.2926E-01
    -11.152  0.2444E-01  0.3181E-01
    -11.048  0.4765E-01  0.3678E-01
    -10.944  0.6403E-01  0.4346E-01
    -10.840  0.4161E-01  0.4780E-01
    -10.735  0.1925E-02  0.4800E-01
    -10.631  0.4087E-06  0.4800E-01
    -10.527  0.5309E-13  0.4800E-01
    -10.422  0.0000E+00  0.4800E-01
    -10.318  0.0000E+00  0.4800E-01
    -10.214  0.0000E+00  0.4800E-01
    -10.110  0.1191E-12  0.4800E-01
    -10.005  0.1286E-05  0.4800E-01
     -9.901  0.5018E-02  0.4852E-01
     -9.797  0.4379E-01  0.5309E-01
     -9.692  0.2706E-01  0.5591E-01
     -9.588  0.8486E-03  0.5600E-01
     -9.484  0.2968E-07  0.5600E-01
     -9.380  0.5602E-13  0.5600E-01
     -9.275  0.8264E-06  0.5600E-01
     -9.171  0.4282E-02  0.5645E-01
     -9.067  0.4752E-01  0.6140E-01
     -8.962  0.2448E-01  0.6395E-01
     -8.858  0.4382E-03  0.6400E-01
     -8.754  0.6882E-08  0.6400E-01
     -8.650  0.2508E-16  0.6400E-01
     -8.545  0.0000E+00  0.6400E-01
     -8.441  0.0000E+00  0.6400E-01
     -8.337  0.0000E+00  0.6400E-01
     -8.232  0.0000E+00  0.6400E-01
     -8.128  0.0000E+00  0.6400E-01
     -8.024  0.0000E+00  0.6400E-01
     -7.920  0.0000E+00  0.6400E-01
     -7.815  0.0000E+00  0.6400E-01
     -7.711  0.0000E+00  0.6400E-01
     -7.607  0.4141E-12  0.6400E-01
     -7.502  0.2696E-05  0.6400E-01
     -7.398  0.6524E-02  0.6468E-01
     -7.294  0.4220E-01  0.6908E-01
     -7.190  0.2710E-01  0.7191E-01
     -7.085  0.8938E-03  0.7200E-01
     -6.981  0.3242E-07  0.7200E-01
     -6.877  0.2931E-15  0.7200E-01
     -6.772  0.0000E+00  0.7200E-01
     -6.668  0.0000E+00  0.7200E-01
     -6.564  0.0000E+00  0.7200E-01
     -6.460  0.0000E+00  0.7200E-01
     -6.355  0.0000E+00  0.7200E-01
     -6.251  0.0000E+00  0.7200E-01
     -6.147  0.0000E+00  0.7200E-01
     -6.042  0.8987E-13  0.7200E-01
     -5.938  0.9517E-06  0.7200E-01
     -5.834  0.3998E-02  0.7242E-01
     -5.730  0.4846E-01  0.7747E-01
     -5.625  0.2352E-01  0.7992E-01
     -5.521  0.5334E-02  0.8048E-01
     -5.417  0.3781E-01  0.8442E-01
     -5.312  0.3206E-01  0.8777E-01
     -5.208  0.2715E-01  0.9060E-01
     -5.104  0.4899E-01  0.9571E-01
     -5.000  0.2805E-02  0.9600E-01
     -4.895  0.3005E-06  0.9600E-01
     -4.791  0.1045E-13  0.9600E-01
     -4.687  0.0000E+00  0.9600E-01
     -4.582  0.0000E+00  0.9600E-01
     -4.478  0.0000E+00  0.9600E-01
     -4.374  0.0000E+00  0.9600E-01
     -4.270  0.0000E+00  0.9600E-01
     -4.165  0.0000E+00  0.9600E-01
     -4.061  0.0000E+00  0.9600E-01
     -3.957  0.0000E+00  0.9600E-01
     -3.852  0.0000E+00  0.9600E-01
     -3.748  0.0000E+00  0.9600E-01
     -3.644  0.0000E+00  0.9600E-01
     -3.540  0.0000E+00  0.9600E-01
     -3.435  0.0000E+00  0.9600E-01
     -3.331  0.0000E+00  0.9600E-01
     -3.227  0.0000E+00  0.9600E-01
     -3.122  0.0000E+00  0.9600E-01
     -3.018  0.0000E+00  0.9600E-01
     -2.914  0.4248E-12  0.9600E-01
     -2.810  0.7429E-06  0.9600E-01
     -2.705  0.4289E-03  0.9604E-01
     -2.601  0.1181E-02  0.9617E-01
     -2.497  0.4136E-02  0.9660E-01
     -2.392  0.3328E-02  0.9695E-01
     -2.288  0.9958E-02  0.9798E-01
     -2.184  0.9293E-02  0.9895E-01
     -2.080  0.1221E-01  0.1002E+00
     -1.975  0.3071E-01  0.1034E+00
     -1.871  0.4274E-01  0.1079E+00
     -1.767  0.4191E-01  0.1123E+00
     -1.662  0.4135E-01  0.1166E+00
     -1.558  0.3612E-01  0.1203E+00
     -1.454  0.2352E-01  0.1228E+00
     -1.350  0.1161E-01  0.1240E+00
     -1.245  0.1161E-01  0.1252E+00
     -1.141  0.1711E-01  0.1270E+00
     -1.037  0.1059E-01  0.1281E+00
     -0.932  0.1903E-01  0.1301E+00
     -0.828  0.3210E-01  0.1334E+00
     -0.724  0.2866E-01  0.1364E+00
     -0.620  0.3530E-01  0.1401E+00
     -0.515  0.4521E-01  0.1448E+00
     -0.411  0.5346E-01  0.1504E+00
     -0.307  0.4235E-01  0.1548E+00
     -0.202  0.4214E-01  0.1592E+00
     -0.098  0.4040E-01  0.1634E+00
      0.006  0.2541E-01  0.1661E+00
      0.110  0.1586E-01  0.1677E+00
      0.215  0.5757E-02  0.1683E+00
      0.319  0.7897E-02  0.1691E+00
      0.423  0.1430E-01  0.1706E+00
      0.528  0.1264E-01  0.1720E+00
      0.632  0.3631E-02  0.1723E+00
      0.736  0.5247E-02  0.1729E+00
      0.840  0.1075E-01  0.1740E+00
      0.945  0.1121E-01  0.1752E+00
      1.049  0.5020E-02  0.1757E+00
      1.153  0.2787E-02  0.1760E+00
      1.258  0.1396E-03  0.1760E+00
      1.362  0.6394E-08  0.1760E+00
      1.466  0.7736E-16  0.1760E+00
      1.570  0.0000E+00  0.1760E+00
      1.675  0.0000E+00  0.1760E+00
      1.779  0.0000E+00  0.1760E+00
      1.883  0.0000E+00  0.1760E+00
      1.988  0.0000E+00  0.1760E+00
      2.092  0.0000E+00  0.1760E+00
      2.196  0.0000E+00  0.1760E+00
      2.300  0.0000E+00  0.1760E+00
      2.405  0.0000E+00  0.1760E+00
      2.509  0.0000E+00  0.1760E+00
      2.613  0.0000E+00  0.1760E+00
      2.718  0.0000E+00  0.1760E+00
      2.822  0.0000E+00  0.1760E+00
      2.926  0.0000E+00  0.1760E+00
      3.030  0.0000E+00  0.1760E+00
      3.135  0.0000E+00  0.1760E+00
      3.239  0.0000E+00  0.1760E+00
      3.343  0.0000E+00  0.1760E+00
      3.448  0.3489E-17  0.1760E+00
      3.552  0.6791E-09  0.1760E+00
      3.656  0.3104E-04  0.1760E+00
      3.760  0.1082E-02  0.1761E+00
      3.865  0.2249E-02  0.1764E+00
      3.969  0.8971E-02  0.1773E+00
      4.073  0.2979E-01  0.1804E+00
      4.178  0.3876E-01  0.1844E+00
      4.282  0.4073E-01  0.1887E+00
      4.386  0.3904E-01  0.1928E+00
      4.491  0.4116E-01  0.1970E+00
      4.595  0.4013E-01  0.2012E+00
      4.699  0.3043E-01  0.2044E+00
      4.803  0.2633E-01  0.2071E+00
      4.908  0.8036E-02  0.2080E+00
      5.012  0.1186E-03  0.2080E+00
      5.116  0.2823E-08  0.2080E+00
      5.221  0.2763E-13  0.2080E+00
      5.325  0.1594E-06  0.2080E+00
      5.429  0.2690E-03  0.2080E+00
      5.533  0.7844E-03  0.2081E+00
      5.638  0.1618E-03  0.2081E+00
      5.742  0.3071E-02  0.2084E+00
      5.846  0.2784E-02  0.2087E+00
      5.951  0.2761E-02  0.2090E+00
      6.055  0.7995E-02  0.2099E+00
      6.159  0.7155E-02  0.2106E+00
      6.263  0.6960E-02  0.2113E+00
      6.368  0.9755E-02  0.2123E+00
      6.472  0.1431E-01  0.2138E+00
      6.576  0.1433E-01  0.2153E+00
      6.681  0.8892E-02  0.2163E+00
      6.785  0.2181E-01  0.2185E+00
      6.889  0.1855E-01  0.2205E+00
      6.993  0.2046E-01  0.2226E+00
      7.098  0.2627E-01  0.2253E+00
      7.202  0.2900E-01  0.2284E+00
      7.306  0.2848E-01  0.2313E+00
      7.411  0.2592E-01  0.2340E+00
      7.515  0.2684E-01  0.2368E+00
      7.619  0.2139E-01  0.2391E+00
      7.723  0.8795E-02  0.2400E+00
      7.828  0.9860E-04  0.2400E+00
      7.932  0.1664E-08  0.2400E+00
      8.036  0.8398E-17  0.2400E+00
      8.141  0.0000E+00  0.2400E+00
      8.245  0.0000E+00  0.2400E+00
      8.349  0.0000E+00  0.2400E+00
      8.453  0.0000E+00  0.2400E+00
      8.558  0.0000E+00  0.2400E+00
      8.662  0.0000E+00  0.2400E+00
      8.766  0.0000E+00  0.2400E+00
      8.871  0.0000E+00  0.2400E+00
      8.975  0.0000E+00  0.2400E+00
      9.079  0.0000E+00  0.2400E+00
