       N       E                     dE             d eps       ncg     rms          ort
DAV:   1     0.832042438228E+03    0.83204E+03   -0.89326E+04  1200   0.161E+03
DAV:   2    -0.464115568703E+03   -0.12962E+04   -0.12413E+04  1200   0.253E+02
DAV:   3    -0.638897365471E+03   -0.17478E+03   -0.17343E+03  1200   0.104E+02
DAV:   4    -0.644047288033E+03   -0.51499E+01   -0.51194E+01  1200   0.200E+01
DAV:   5    -0.644203559594E+03   -0.15627E+00   -0.15618E+00  1200   0.326E+00
SDA:   6    -0.581321303461E+03    0.62882E+02   -0.15618E+00  1200   0.629E+02 0.000E+00
CGA:   7    -0.591768763994E+03   -0.10447E+02   -0.10416E+02  1200   0.461E+01-0.299E-02
CGA:   8    -0.593132819387E+03   -0.13641E+01   -0.13603E+01  1200   0.144E+01 0.237E-01
CGA:   9    -0.593561868845E+03   -0.42905E+00   -0.42904E+00  1200   0.418E+00 0.107E-02
CGA:  10    -0.593688959019E+03   -0.12709E+00   -0.12711E+00  1200   0.115E+00-0.247E-03
CGA:  11    -0.593729817007E+03   -0.40858E-01   -0.40874E-01  1200   0.340E-01-0.160E-03
CGA:  12    -0.593740801856E+03   -0.10985E-01   -0.10981E-01  1200   0.757E-02 0.462E-04
CGA:  13    -0.593743522138E+03   -0.27203E-02   -0.27262E-02  1200   0.188E-02-0.426E-04
CGA:  14    -0.593744199571E+03   -0.67743E-03   -0.67727E-03  1200   0.399E-03 0.148E-05
CGA:  15    -0.593744347476E+03   -0.14790E-03   -0.14558E-03  1200   0.849E-04 0.184E-04
CGA:  16    -0.593744384595E+03   -0.37119E-04   -0.36668E-04  1200   0.218E-04 0.266E-05
CGA:  17    -0.593744394686E+03   -0.10090E-04   -0.10433E-04  1200   0.601E-05-0.163E-05
CGA:  18    -0.593744396881E+03   -0.21950E-05   -0.21117E-05  1200   0.139E-05 0.711E-06
   1 F= -.59374440E+03 E0= -.59374440E+03  d E =-.593744E+03
       N       E                     dE             d eps       ncg     rms          ort
SDA:   1    -0.593678047289E+03    0.66347E-01    0.00000E+00  1200   0.298E+00 0.000E+00
CGA:   2    -0.593743800587E+03   -0.65753E-01   -0.65769E-01  1200   0.397E-01 0.453E-03
CGA:   3    -0.593756649253E+03   -0.12849E-01   -0.12845E-01  1200   0.658E-02 0.692E-04
CGA:   4    -0.593758613524E+03   -0.19643E-02   -0.19656E-02  1200   0.194E-02-0.526E-04
CGA:   5    -0.593759175980E+03   -0.56246E-03   -0.56276E-03  1200   0.594E-03-0.172E-04
CGA:   6    -0.593759382270E+03   -0.20629E-03   -0.20627E-03  1200   0.168E-03 0.235E-06
CGA:   7    -0.593759444277E+03   -0.62007E-04   -0.62691E-04  1200   0.525E-04-0.716E-05
CGA:   8    -0.593759460671E+03   -0.16394E-04   -0.16595E-04  1200   0.131E-04-0.427E-05
CGA:   9    -0.593759464371E+03   -0.37003E-05   -0.36887E-05  1200   0.254E-05 0.558E-06
   2 F= -.59375946E+03 E0= -.59375946E+03  d E =-.150675E-01
       N       E                     dE             d eps       ncg     rms          ort
SDA:   1    -0.593645808911E+03    0.11365E+00    0.00000E+00  1200   0.440E+00 0.000E+00
CGA:   2    -0.593742835042E+03   -0.97026E-01   -0.97043E-01  1200   0.585E-01 0.520E-03
CGA:   3    -0.593761748833E+03   -0.18914E-01   -0.18910E-01  1200   0.969E-02 0.804E-04
CGA:   4    -0.593764633568E+03   -0.28847E-02   -0.28855E-02  1200   0.285E-02-0.615E-04
CGA:   5    -0.593765459333E+03   -0.82576E-03   -0.82590E-03  1200   0.872E-03-0.200E-04
CGA:   6    -0.593765763440E+03   -0.30411E-03   -0.30407E-03  1200   0.248E-03 0.512E-06
CGA:   7    -0.593765854480E+03   -0.91040E-04   -0.91700E-04  1200   0.762E-04-0.808E-05
CGA:   8    -0.593765878437E+03   -0.23958E-04   -0.24128E-04  1200   0.186E-04-0.492E-05
CGA:   9    -0.593765883909E+03   -0.54713E-05   -0.54594E-05  1200   0.369E-05 0.612E-06
CGA:  10    -0.593765884970E+03   -0.10614E-05   -0.10723E-05  1200   0.864E-06 0.804E-06
   3 F= -.59376588E+03 E0= -.59376588E+03  d E =-.214881E-01
       N       E                     dE             d eps       ncg     rms          ort
SDA:   1    -0.593754927458E+03    0.10956E-01    0.00000E+00  1200   0.548E-01 0.000E+00
CGA:   2    -0.593767425517E+03   -0.12498E-01   -0.12505E-01  1200   0.972E-02 0.112E-03
CGA:   3    -0.593770616052E+03   -0.31905E-02   -0.31907E-02  1200   0.184E-02-0.456E-05
CGA:   4    -0.593771100669E+03   -0.48462E-03   -0.48424E-03  1200   0.436E-03-0.117E-04
CGA:   5    -0.593771226147E+03   -0.12548E-03   -0.12545E-03  1200   0.102E-03-0.656E-05
CGA:   6    -0.593771260463E+03   -0.34316E-04   -0.34290E-04  1200   0.291E-04 0.547E-06
CGA:   7    -0.593771271453E+03   -0.10991E-04   -0.11106E-04  1200   0.111E-04-0.139E-05
CGA:   8    -0.593771275320E+03   -0.38671E-05   -0.39574E-05  1200   0.307E-05-0.120E-05
   4 F= -.59377128E+03 E0= -.59377128E+03  d E =-.539035E-02
       N       E                     dE             d eps       ncg     rms          ort
SDA:   1    -0.593631827677E+03    0.13944E+00    0.00000E+00  1200   0.495E+00 0.000E+00
CGA:   2    -0.593744777801E+03   -0.11295E+00   -0.11294E+00  1200   0.876E-01 0.285E-03
CGA:   3    -0.593773476823E+03   -0.28699E-01   -0.28699E-01  1200   0.165E-01-0.123E-04
CGA:   4    -0.593777809214E+03   -0.43324E-02   -0.43308E-02  1200   0.386E-02-0.379E-04
CGA:   5    -0.593778921220E+03   -0.11120E-02   -0.11118E-02  1200   0.895E-03-0.188E-04
CGA:   6    -0.593779229712E+03   -0.30849E-03   -0.30841E-03  1200   0.262E-03 0.176E-05
CGA:   7    -0.593779325891E+03   -0.96180E-04   -0.96451E-04  1200   0.933E-04-0.416E-05
CGA:   8    -0.593779358544E+03   -0.32653E-04   -0.32827E-04  1200   0.235E-04-0.333E-05
CGA:   9    -0.593779366212E+03   -0.76682E-05   -0.76475E-05  1200   0.475E-05 0.694E-06
CGA:  10    -0.593779367831E+03   -0.16188E-05   -0.16103E-05  1200   0.105E-05 0.414E-06
   5 F= -.59377937E+03 E0= -.59377937E+03  d E =-.134829E-01
       N       E                     dE             d eps       ncg     rms          ort
SDA:   1    -0.593756944752E+03    0.22421E-01    0.00000E+00  1200   0.107E+00 0.000E+00
CGA:   2    -0.593780638911E+03   -0.23694E-01   -0.23700E-01  1200   0.172E-01 0.108E-03
CGA:   3    -0.593786299844E+03   -0.56609E-02   -0.56611E-02  1200   0.332E-02-0.160E-04
CGA:   4    -0.593787185330E+03   -0.88549E-03   -0.88496E-03  1200   0.801E-03-0.102E-04
CGA:   5    -0.593787417550E+03   -0.23222E-03   -0.23211E-03  1200   0.191E-03-0.505E-05
CGA:   6    -0.593787482873E+03   -0.65322E-04   -0.65307E-04  1200   0.557E-04 0.488E-06
CGA:   7    -0.593787503127E+03   -0.20254E-04   -0.20346E-04  1200   0.198E-04-0.182E-05
CGA:   8    -0.593787509962E+03   -0.68356E-05   -0.68759E-05  1200   0.494E-05-0.937E-06
CGA:   9    -0.593787511454E+03   -0.14911E-05   -0.14915E-05  1200   0.971E-06 0.386E-06
   6 F= -.59378751E+03 E0= -.59378751E+03  d E =-.814362E-02
       N       E                     dE             d eps       ncg     rms          ort
SDA:   1    -0.593687075915E+03    0.10043E+00    0.00000E+00  1200   0.370E+00 0.000E+00
CGA:   2    -0.593768883596E+03   -0.81808E-01   -0.81796E-01  1200   0.591E-01 0.210E-03
CGA:   3    -0.593788381452E+03   -0.19498E-01   -0.19498E-01  1200   0.114E-01-0.293E-04
CGA:   4    -0.593791420837E+03   -0.30394E-02   -0.30383E-02  1200   0.274E-02-0.206E-04
CGA:   5    -0.593792214568E+03   -0.79373E-03   -0.79352E-03  1200   0.654E-03-0.932E-05
CGA:   6    -0.593792439983E+03   -0.22542E-03   -0.22538E-03  1200   0.193E-03 0.102E-05
CGA:   7    -0.593792509013E+03   -0.69030E-04   -0.69183E-04  1200   0.664E-04-0.336E-05
CGA:   8    -0.593792532169E+03   -0.23156E-04   -0.23228E-04  1200   0.164E-04-0.176E-05
CGA:   9    -0.593792537499E+03   -0.53304E-05   -0.53175E-05  1200   0.341E-05 0.755E-06
CGA:  10    -0.593792538722E+03   -0.12229E-05   -0.12170E-05  1200   0.800E-06 0.236E-06
   7 F= -.59379254E+03 E0= -.59379254E+03  d E =-.131709E-01
       N       E                     dE             d eps       ncg     rms          ort
SDA:   1    -0.593754548065E+03    0.37989E-01    0.00000E+00  1200   0.144E+00 0.000E+00
CGA:   2    -0.593786524517E+03   -0.31976E-01   -0.31985E-01  1200   0.243E-01 0.189E-03
CGA:   3    -0.593794477666E+03   -0.79531E-02   -0.79531E-02  1200   0.472E-02 0.397E-05
CGA:   4    -0.593795708919E+03   -0.12313E-02   -0.12299E-02  1200   0.112E-02-0.208E-04
CGA:   5    -0.593796037382E+03   -0.32846E-03   -0.32812E-03  1200   0.267E-03-0.125E-04
CGA:   6    -0.593796127925E+03   -0.90543E-04   -0.90510E-04  1200   0.797E-04 0.146E-05
CGA:   7    -0.593796156868E+03   -0.28943E-04   -0.29011E-04  1200   0.286E-04-0.170E-05
CGA:   8    -0.593796167228E+03   -0.10360E-04   -0.10464E-04  1200   0.750E-05-0.207E-05
CGA:   9    -0.593796169491E+03   -0.22626E-05   -0.22628E-05  1200   0.145E-05 0.309E-06
   8 F= -.59379617E+03 E0= -.59379617E+03  d E =-.363077E-02
       N       E                     dE             d eps       ncg     rms          ort
SDA:   1    -0.593742076463E+03    0.54091E-01    0.00000E+00  1200   0.193E+00 0.000E+00
CGA:   2    -0.593784800104E+03   -0.42724E-01   -0.42729E-01  1200   0.324E-01 0.220E-03
CGA:   3    -0.593795416416E+03   -0.10616E-01   -0.10616E-01  1200   0.628E-02 0.538E-05
CGA:   4    -0.593797055685E+03   -0.16393E-02   -0.16377E-02  1200   0.149E-02-0.249E-04
CGA:   5    -0.593797491672E+03   -0.43599E-03   -0.43565E-03  1200   0.355E-03-0.147E-04
CGA:   6    -0.593797612833E+03   -0.12116E-03   -0.12111E-03  1200   0.107E-03 0.175E-05
CGA:   7    -0.593797651442E+03   -0.38609E-04   -0.38694E-04  1200   0.380E-04-0.198E-05
CGA:   8    -0.593797665199E+03   -0.13757E-04   -0.13884E-04  1200   0.987E-05-0.242E-05
CGA:   9    -0.593797668237E+03   -0.30381E-05   -0.30360E-05  1200   0.193E-05 0.365E-06
   9 F= -.59379767E+03 E0= -.59379767E+03  d E =-.512952E-02
       N       E                     dE             d eps       ncg     rms          ort
SDA:   1    -0.593754619004E+03    0.43046E-01    0.00000E+00  1200   0.175E+00 0.000E+00
CGA:   2    -0.593793627126E+03   -0.39008E-01   -0.39029E-01  1200   0.284E-01 0.357E-03
CGA:   3    -0.593802766026E+03   -0.91389E-02   -0.91387E-02  1200   0.543E-02 0.569E-04
CGA:   4    -0.593804213643E+03   -0.14476E-02   -0.14454E-02  1200   0.134E-02-0.417E-04
CGA:   5    -0.593804610358E+03   -0.39672E-03   -0.39633E-03  1200   0.348E-03-0.244E-04
CGA:   6    -0.593804728255E+03   -0.11790E-03   -0.11782E-03  1200   0.107E-03 0.248E-05
CGA:   7    -0.593804766943E+03   -0.38688E-04   -0.38790E-04  1200   0.367E-04-0.227E-05
CGA:   8    -0.593804780110E+03   -0.13167E-04   -0.13385E-04  1200   0.992E-05-0.397E-05
CGA:   9    -0.593804782940E+03   -0.28296E-05   -0.28295E-05  1200   0.179E-05 0.102E-06
  10 F= -.59380478E+03 E0= -.59380478E+03  d E =-.711470E-02
       N       E                     dE             d eps       ncg     rms          ort
SDA:   1    -0.593559812759E+03    0.24497E+00    0.00000E+00  1200   0.876E+00 0.000E+00
CGA:   2    -0.593755554780E+03   -0.19574E+00   -0.19567E+00  1200   0.142E+00 0.776E-03
CGA:   3    -0.593801229700E+03   -0.45675E-01   -0.45673E-01  1200   0.272E-01 0.141E-03
CGA:   4    -0.593808428727E+03   -0.71990E-02   -0.71940E-02  1200   0.661E-02-0.986E-04
CGA:   5    -0.593810391520E+03   -0.19628E-02   -0.19621E-02  1200   0.170E-02-0.545E-04
CGA:   6    -0.593810981149E+03   -0.58963E-03   -0.58940E-03  1200   0.536E-03 0.579E-05
CGA:   7    -0.593811172022E+03   -0.19087E-03   -0.19110E-03  1200   0.178E-03-0.512E-05
CGA:   8    -0.593811234260E+03   -0.62238E-04   -0.62570E-04  1200   0.431E-04-0.825E-05
CGA:   9    -0.593811248080E+03   -0.13820E-04   -0.13816E-04  1200   0.844E-05 0.206E-06
CGA:  10    -0.593811250653E+03   -0.25731E-05   -0.25856E-05  1200   0.170E-05 0.106E-05
  11 F= -.59381125E+03 E0= -.59381125E+03  d E =-.135824E-01
       N       E                     dE             d eps       ncg     rms          ort
SDA:   1    -0.593770389831E+03    0.40858E-01    0.00000E+00  1200   0.152E+00 0.000E+00
CGA:   2    -0.593805311712E+03   -0.34922E-01   -0.34942E-01  1200   0.270E-01 0.335E-03
CGA:   3    -0.593813908188E+03   -0.85965E-02   -0.85963E-02  1200   0.514E-02 0.516E-04
CGA:   4    -0.593815283393E+03   -0.13752E-02   -0.13731E-02  1200   0.124E-02-0.439E-04
CGA:   5    -0.593815648909E+03   -0.36552E-03   -0.36518E-03  1200   0.310E-03-0.220E-04
CGA:   6    -0.593815753924E+03   -0.10501E-03   -0.10494E-03  1200   0.954E-04 0.216E-05
CGA:   7    -0.593815788373E+03   -0.34449E-04   -0.34553E-04  1200   0.337E-04-0.227E-05
CGA:   8    -0.593815800422E+03   -0.12050E-04   -0.12257E-04  1200   0.921E-05-0.365E-05
CGA:   9    -0.593815803048E+03   -0.26255E-05   -0.26252E-05  1200   0.165E-05 0.165E-06
  12 F= -.59381580E+03 E0= -.59381580E+03  d E =-.455239E-02
       N       E                     dE             d eps       ncg     rms          ort
SDA:   1    -0.593799596154E+03    0.16204E-01    0.00000E+00  1200   0.568E-01 0.000E+00
CGA:   2    -0.593812643420E+03   -0.13047E-01   -0.13063E-01  1200   0.101E-01 0.210E-03
CGA:   3    -0.593815856696E+03   -0.32133E-02   -0.32131E-02  1200   0.191E-02 0.329E-04
CGA:   4    -0.593816373753E+03   -0.51706E-03   -0.51589E-03  1200   0.467E-03-0.273E-04
CGA:   5    -0.593816511416E+03   -0.13766E-03   -0.13752E-03  1200   0.119E-03-0.136E-04
CGA:   6    -0.593816550671E+03   -0.39255E-04   -0.39209E-04  1200   0.356E-04 0.149E-05
CGA:   7    -0.593816563740E+03   -0.13068E-04   -0.13139E-04  1200   0.130E-04-0.129E-05
CGA:   8    -0.593816568501E+03   -0.47619E-05   -0.49607E-05  1200   0.417E-05-0.240E-05
  13 F= -.59381657E+03 E0= -.59381657E+03  d E =-.531785E-02
       N       E                     dE             d eps       ncg     rms          ort
SDA:   1    -0.593808139978E+03    0.84238E-02    0.00000E+00  1200   0.375E-01 0.000E+00
CGA:   2    -0.593816749246E+03   -0.86093E-02   -0.86190E-02  1200   0.680E-02 0.123E-03
CGA:   3    -0.593818804350E+03   -0.20551E-02   -0.20552E-02  1200   0.141E-02 0.119E-04
CGA:   4    -0.593819177583E+03   -0.37323E-03   -0.37256E-03  1200   0.314E-03-0.138E-04
CGA:   5    -0.593819270673E+03   -0.93089E-04   -0.92999E-04  1200   0.812E-04-0.911E-05
CGA:   6    -0.593819295981E+03   -0.25308E-04   -0.25306E-04  1200   0.239E-04 0.148E-06
CGA:   7    -0.593819304612E+03   -0.86316E-05   -0.86629E-05  1200   0.812E-05-0.586E-06
CGA:   8    -0.593819307694E+03   -0.30815E-05   -0.31926E-05  1200   0.262E-05-0.122E-05
  14 F= -.59381931E+03 E0= -.59381931E+03  d E =-.273919E-02
       N       E                     dE             d eps       ncg     rms          ort
SDA:   1    -0.593723728281E+03    0.95576E-01    0.00000E+00  1200   0.338E+00 0.000E+00
CGA:   2    -0.593801444203E+03   -0.77716E-01   -0.77720E-01  1200   0.614E-01 0.343E-03
CGA:   3    -0.593819915619E+03   -0.18471E-01   -0.18472E-01  1200   0.127E-01 0.399E-04
CGA:   4    -0.593823245354E+03   -0.33297E-02   -0.33275E-02  1200   0.280E-02-0.432E-04
CGA:   5    -0.593824069297E+03   -0.82394E-03   -0.82358E-03  1200   0.703E-03-0.270E-04
CGA:   6    -0.593824296761E+03   -0.22746E-03   -0.22746E-03  1200   0.215E-03 0.248E-06
CGA:   7    -0.593824373452E+03   -0.76690E-04   -0.76785E-04  1200   0.708E-04-0.199E-05
CGA:   8    -0.593824399257E+03   -0.25805E-04   -0.26005E-04  1200   0.187E-04-0.337E-05
CGA:   9    -0.593824405299E+03   -0.60415E-05   -0.60412E-05  1200   0.368E-05 0.107E-07
CGA:  10    -0.593824406471E+03   -0.11729E-05   -0.11719E-05  1200   0.720E-06 0.372E-06
  15 F= -.59382441E+03 E0= -.59382441E+03  d E =-.783797E-02
       N       E                     dE             d eps       ncg     rms          ort
SDA:   1    -0.593417844046E+03    0.40656E+00    0.00000E+00  1200   0.135E+01 0.000E+00
CGA:   2    -0.593729034724E+03   -0.31119E+00   -0.31103E+00  1200   0.245E+00 0.529E-03
CGA:   3    -0.593802764006E+03   -0.73729E-01   -0.73733E-01  1200   0.507E-01 0.129E-03
CGA:   4    -0.593816033113E+03   -0.13269E-01   -0.13263E-01  1200   0.111E-01-0.938E-04
CGA:   5    -0.593819312183E+03   -0.32791E-02   -0.32782E-02  1200   0.277E-02-0.531E-04
CGA:   6    -0.593820218921E+03   -0.90674E-03   -0.90672E-03  1200   0.857E-03 0.860E-06
CGA:   7    -0.593820523408E+03   -0.30449E-03   -0.30466E-03  1200   0.280E-03-0.404E-05
CGA:   8    -0.593820624052E+03   -0.10064E-03   -0.10096E-03  1200   0.713E-04-0.657E-05
CGA:   9    -0.593820647987E+03   -0.23935E-04   -0.23935E-04  1200   0.146E-04 0.606E-08
CGA:  10    -0.593820652904E+03   -0.49169E-05   -0.49037E-05  1200   0.294E-05 0.720E-06
  16 F= -.59382065E+03 E0= -.59382065E+03  d E =-.408440E-02
       N       E                     dE             d eps       ncg     rms          ort
SDA:   1    -0.593627457280E+03    0.19319E+00    0.00000E+00  1200   0.662E+00 0.000E+00
CGA:   2    -0.593780248179E+03   -0.15279E+00   -0.15283E+00  1200   0.120E+00-0.422E-03
CGA:   3    -0.593816533207E+03   -0.36285E-01   -0.36283E-01  1200   0.249E-01-0.849E-04
CGA:   4    -0.593823001075E+03   -0.64679E-02   -0.64713E-02  1200   0.543E-02 0.559E-04
CGA:   5    -0.593824583989E+03   -0.15829E-02   -0.15838E-02  1200   0.133E-02 0.384E-04
CGA:   6    -0.593825028863E+03   -0.44487E-03   -0.44486E-03  1200   0.419E-03 0.558E-06
CGA:   7    -0.593825175957E+03   -0.14709E-03   -0.14700E-03  1200   0.134E-03 0.262E-05
CGA:   8    -0.593825222786E+03   -0.46830E-04   -0.46692E-04  1200   0.316E-04 0.445E-05
CGA:   9    -0.593825234435E+03   -0.11648E-04   -0.11639E-04  1200   0.717E-05 0.231E-06
CGA:  10    -0.593825237153E+03   -0.27181E-05   -0.27498E-05  1200   0.175E-05-0.525E-06
  17 F= -.59382524E+03 E0= -.59382524E+03  d E =-.866865E-02
       N       E                     dE             d eps       ncg     rms          ort
SDA:   1    -0.593804108596E+03    0.21126E-01    0.00000E+00  1200   0.740E-01 0.000E+00
CGA:   2    -0.593822313984E+03   -0.18205E-01   -0.18217E-01  1200   0.151E-01 0.178E-03
CGA:   3    -0.593826860623E+03   -0.45466E-02   -0.45470E-02  1200   0.304E-02 0.151E-04
CGA:   4    -0.593827668150E+03   -0.80753E-03   -0.80640E-03  1200   0.618E-03-0.205E-04
CGA:   5    -0.593827854625E+03   -0.18647E-03   -0.18635E-03  1200   0.154E-03-0.989E-05
CGA:   6    -0.593827904294E+03   -0.49669E-04   -0.49658E-04  1200   0.469E-04 0.859E-06
CGA:   7    -0.593827921863E+03   -0.17569E-04   -0.17626E-04  1200   0.162E-04-0.982E-06
CGA:   8    -0.593827927807E+03   -0.59439E-05   -0.60363E-05  1200   0.477E-05-0.149E-05
CGA:   9    -0.593827929206E+03   -0.13991E-05   -0.13991E-05  1200   0.902E-06-0.401E-07
  18 F= -.59382793E+03 E0= -.59382793E+03  d E =-.269205E-02
       N       E                     dE             d eps       ncg     rms          ort
SDA:   1    -0.593810922039E+03    0.17006E-01    0.00000E+00  1200   0.551E-01 0.000E+00
CGA:   2    -0.593824485094E+03   -0.13563E-01   -0.13574E-01  1200   0.112E-01 0.156E-03
CGA:   3    -0.593827873047E+03   -0.33880E-02   -0.33882E-02  1200   0.227E-02 0.133E-04
CGA:   4    -0.593828475030E+03   -0.60198E-03   -0.60107E-03  1200   0.461E-03-0.178E-04
CGA:   5    -0.593828614158E+03   -0.13913E-03   -0.13904E-03  1200   0.115E-03-0.861E-05
CGA:   6    -0.593828651195E+03   -0.37037E-04   -0.37025E-04  1200   0.350E-04 0.791E-06
CGA:   7    -0.593828664400E+03   -0.13205E-04   -0.13256E-04  1200   0.122E-04-0.821E-06
CGA:   8    -0.593828668906E+03   -0.45056E-05   -0.45955E-05  1200   0.371E-05-0.131E-05
  19 F= -.59382867E+03 E0= -.59382867E+03  d E =-.343175E-02
       N       E                     dE             d eps       ncg     rms          ort
SDA:   1    -0.593822177215E+03    0.64872E-02    0.00000E+00  1200   0.239E-01 0.000E+00
CGA:   2    -0.593828328911E+03   -0.61517E-02   -0.61585E-02  1200   0.491E-02 0.110E-03
CGA:   3    -0.593829778577E+03   -0.14497E-02   -0.14498E-02  1200   0.997E-03 0.747E-05
CGA:   4    -0.593830051462E+03   -0.27289E-03   -0.27233E-03  1200   0.203E-03-0.127E-04
CGA:   5    -0.593830114361E+03   -0.62899E-04   -0.62895E-04  1200   0.514E-04-0.459E-05
CGA:   6    -0.593830131022E+03   -0.16662E-04   -0.16659E-04  1200   0.159E-04 0.165E-06
CGA:   7    -0.593830136960E+03   -0.59379E-05   -0.59948E-05  1200   0.569E-05-0.922E-06
CGA:   8    -0.593830138960E+03   -0.19997E-05   -0.20528E-05  1200   0.179E-05-0.813E-06
  20 F= -.59383014E+03 E0= -.59383014E+03  d E =-.147005E-02
       N       E                     dE             d eps       ncg     rms          ort
SDA:   1    -0.593818851220E+03    0.11286E-01    0.00000E+00  1200   0.357E-01 0.000E+00
CGA:   2    -0.593828069286E+03   -0.92181E-02   -0.92262E-02  1200   0.736E-02 0.135E-03
CGA:   3    -0.593830238427E+03   -0.21691E-02   -0.21694E-02  1200   0.149E-02 0.900E-05
CGA:   4    -0.593830645205E+03   -0.40678E-03   -0.40609E-03  1200   0.302E-03-0.155E-04
CGA:   5    -0.593830738870E+03   -0.93665E-04   -0.93659E-04  1200   0.758E-04-0.561E-05
CGA:   6    -0.593830763718E+03   -0.24848E-04   -0.24843E-04  1200   0.236E-04 0.234E-06
CGA:   7    -0.593830772488E+03   -0.87696E-05   -0.88354E-05  1200   0.829E-05-0.113E-05
CGA:   8    -0.593830775402E+03   -0.29140E-05   -0.29695E-05  1200   0.249E-05-0.959E-06
  21 F= -.59383078E+03 E0= -.59383078E+03  d E =-.210650E-02
       N       E                     dE             d eps       ncg     rms          ort
SDA:   1    -0.593822999956E+03    0.77725E-02    0.00000E+00  1200   0.296E-01 0.000E+00
CGA:   2    -0.593830358255E+03   -0.73583E-02   -0.73640E-02  1200   0.520E-02 0.809E-04
CGA:   3    -0.593831883516E+03   -0.15253E-02   -0.15255E-02  1200   0.104E-02 0.769E-05
CGA:   4    -0.593832172482E+03   -0.28897E-03   -0.28862E-03  1200   0.216E-03-0.872E-05
CGA:   5    -0.593832242180E+03   -0.69698E-04   -0.69749E-04  1200   0.554E-04-0.417E-05
CGA:   6    -0.593832260847E+03   -0.18667E-04   -0.18681E-04  1200   0.179E-04-0.464E-06
CGA:   7    -0.593832267163E+03   -0.63160E-05   -0.63472E-05  1200   0.574E-05-0.754E-06
CGA:   8    -0.593832269108E+03   -0.19451E-05   -0.19592E-05  1200   0.153E-05-0.367E-06
  22 F= -.59383227E+03 E0= -.59383227E+03  d E =-.149371E-02
       N       E                     dE             d eps       ncg     rms          ort
SDA:   1    -0.593817039146E+03    0.15228E-01    0.00000E+00  1200   0.508E-01 0.000E+00
CGA:   2    -0.593829686412E+03   -0.12647E-01   -0.12654E-01  1200   0.894E-02 0.106E-03
CGA:   3    -0.593832304605E+03   -0.26182E-02   -0.26184E-02  1200   0.179E-02 0.101E-04
CGA:   4    -0.593832799386E+03   -0.49478E-03   -0.49434E-03  1200   0.368E-03-0.115E-04
CGA:   5    -0.593832918659E+03   -0.11927E-03   -0.11935E-03  1200   0.938E-04-0.547E-05
CGA:   6    -0.593832950619E+03   -0.31959E-04   -0.31979E-04  1200   0.305E-04-0.591E-06
CGA:   7    -0.593832961323E+03   -0.10704E-04   -0.10744E-04  1200   0.964E-05-0.100E-05
CGA:   8    -0.593832964595E+03   -0.32718E-05   -0.32889E-05  1200   0.252E-05-0.470E-06
  23 F= -.59383296E+03 E0= -.59383296E+03  d E =-.218919E-02
       N       E                     dE             d eps       ncg     rms          ort
SDA:   1    -0.593820170533E+03    0.12791E-01    0.00000E+00  1200   0.437E-01 0.000E+00
CGA:   2    -0.593831434341E+03   -0.11264E-01   -0.11265E-01  1200   0.829E-02 0.239E-04
CGA:   3    -0.593833895811E+03   -0.24615E-02   -0.24615E-02  1200   0.162E-02-0.227E-06
CGA:   4    -0.593834333017E+03   -0.43721E-03   -0.43711E-03  1200   0.313E-03-0.214E-05
CGA:   5    -0.593834432192E+03   -0.99174E-04   -0.99183E-04  1200   0.735E-04-0.179E-05
CGA:   6    -0.593834457911E+03   -0.25720E-04   -0.25734E-04  1200   0.240E-04-0.358E-06
CGA:   7    -0.593834466425E+03   -0.85135E-05   -0.85191E-05  1200   0.766E-05-0.129E-06
CGA:   8    -0.593834468970E+03   -0.25450E-05   -0.25414E-05  1200   0.181E-05 0.229E-06
  24 F= -.59383447E+03 E0= -.59383447E+03  d E =-.150438E-02
       N       E                     dE             d eps       ncg     rms          ort
SDA:   1    -0.593809653664E+03    0.24813E-01    0.00000E+00  1200   0.780E-01 0.000E+00
CGA:   2    -0.593829769432E+03   -0.20116E-01   -0.20118E-01  1200   0.148E-01 0.323E-04
CGA:   3    -0.593834162061E+03   -0.43926E-02   -0.43926E-02  1200   0.289E-02-0.147E-06
CGA:   4    -0.593834942494E+03   -0.78043E-03   -0.78030E-03  1200   0.559E-03-0.298E-05
CGA:   5    -0.593835119592E+03   -0.17710E-03   -0.17711E-03  1200   0.131E-03-0.239E-05
CGA:   6    -0.593835165506E+03   -0.45914E-04   -0.45932E-04  1200   0.426E-04-0.442E-06
CGA:   7    -0.593835180658E+03   -0.15152E-04   -0.15159E-04  1200   0.136E-04-0.163E-06
CGA:   8    -0.593835185209E+03   -0.45514E-05   -0.45449E-05  1200   0.325E-05 0.319E-06
  25 F= -.59383519E+03 E0= -.59383519E+03  d E =-.222061E-02
       N       E                     dE             d eps       ncg     rms          ort
SDA:   1    -0.593821910232E+03    0.13270E-01    0.00000E+00  1200   0.470E-01 0.000E+00
CGA:   2    -0.593833664628E+03   -0.11754E-01   -0.11751E-01  1200   0.830E-02-0.552E-04
CGA:   3    -0.593836115976E+03   -0.24513E-02   -0.24511E-02  1200   0.166E-02-0.109E-04
CGA:   4    -0.593836566660E+03   -0.45068E-03   -0.45092E-03  1200   0.324E-03 0.559E-05
CGA:   5    -0.593836672917E+03   -0.10626E-03   -0.10622E-03  1200   0.809E-04 0.263E-05
CGA:   6    -0.593836702279E+03   -0.29362E-04   -0.29385E-04  1200   0.278E-04-0.497E-06
CGA:   7    -0.593836711906E+03   -0.96275E-05   -0.96155E-05  1200   0.831E-05 0.354E-06
CGA:   8    -0.593836714575E+03   -0.26689E-05   -0.26684E-05  1200   0.188E-05 0.709E-06
  26 F= -.59383671E+03 E0= -.59383671E+03  d E =-.152937E-02
       N       E                     dE             d eps       ncg     rms          ort
SDA:   1    -0.593789180721E+03    0.47531E-01    0.00000E+00  1200   0.154E+00 0.000E+00
CGA:   2    -0.593827764989E+03   -0.38584E-01   -0.38579E-01  1200   0.272E-01-0.969E-04
CGA:   3    -0.593835809409E+03   -0.80444E-02   -0.80441E-02  1200   0.546E-02-0.198E-04
CGA:   4    -0.593837292708E+03   -0.14833E-02   -0.14837E-02  1200   0.107E-02 0.977E-05
CGA:   5    -0.593837643450E+03   -0.35074E-03   -0.35066E-03  1200   0.267E-03 0.483E-05
CGA:   6    -0.593837739519E+03   -0.96069E-04   -0.96110E-04  1200   0.904E-04-0.884E-06
CGA:   7    -0.593837771218E+03   -0.31699E-04   -0.31676E-04  1200   0.274E-04 0.609E-06
CGA:   8    -0.593837780274E+03   -0.90565E-05   -0.90412E-05  1200   0.645E-05 0.135E-05
CGA:   9    -0.593837782542E+03   -0.22679E-05   -0.22651E-05  1200   0.159E-05 0.173E-06
  27 F= -.59383778E+03 E0= -.59383778E+03  d E =-.259733E-02
       N       E                     dE             d eps       ncg     rms          ort
SDA:   1    -0.593813049818E+03    0.24730E-01    0.00000E+00  1200   0.815E-01 0.000E+00
CGA:   2    -0.593833555298E+03   -0.20505E-01   -0.20500E-01  1200   0.153E-01-0.793E-04
CGA:   3    -0.593838030607E+03   -0.44753E-02   -0.44751E-02  1200   0.313E-02-0.672E-05
CGA:   4    -0.593838863533E+03   -0.83293E-03   -0.83340E-03  1200   0.605E-03 0.880E-05
CGA:   5    -0.593839053110E+03   -0.18958E-03   -0.18960E-03  1200   0.151E-03 0.546E-05
CGA:   6    -0.593839104695E+03   -0.51585E-04   -0.51597E-04  1200   0.504E-04-0.557E-06
CGA:   7    -0.593839122449E+03   -0.17754E-04   -0.17740E-04  1200   0.157E-04 0.388E-06
CGA:   8    -0.593839127618E+03   -0.51690E-05   -0.51635E-05  1200   0.383E-05 0.995E-06
CGA:   9    -0.593839129000E+03   -0.13821E-05   -0.13789E-05  1200   0.872E-06 0.190E-06
  28 F= -.59383913E+03 E0= -.59383913E+03  d E =-.134646E-02
       N       E                     dE             d eps       ncg     rms          ort
SDA:   1    -0.593835202784E+03    0.39248E-02    0.00000E+00  1200   0.127E-01 0.000E+00
CGA:   2    -0.593838390997E+03   -0.31882E-02   -0.31857E-02  1200   0.239E-02-0.313E-04
CGA:   3    -0.593839086541E+03   -0.69554E-03   -0.69546E-03  1200   0.489E-03-0.225E-05
CGA:   4    -0.593839215563E+03   -0.12902E-03   -0.12924E-03  1200   0.949E-04 0.342E-05
CGA:   5    -0.593839244784E+03   -0.29221E-04   -0.29259E-04  1200   0.236E-04 0.206E-05
CGA:   6    -0.593839252939E+03   -0.81546E-05   -0.81573E-05  1200   0.813E-05-0.173E-06
CGA:   7    -0.593839255744E+03   -0.28049E-05   -0.28012E-05  1200   0.248E-05 0.149E-06
CGA:   8    -0.593839256499E+03   -0.75534E-06   -0.76343E-06  1200   0.568E-06 0.358E-06
  29 F= -.59383926E+03 E0= -.59383926E+03  d E =-.147396E-02
       N       E                     dE             d eps       ncg     rms          ort
SDA:   1    -0.593824252336E+03    0.15003E-01    0.00000E+00  1200   0.532E-01 0.000E+00
CGA:   2    -0.593837378929E+03   -0.13127E-01   -0.13122E-01  1200   0.934E-02-0.665E-04
CGA:   3    -0.593840066224E+03   -0.26873E-02   -0.26872E-02  1200   0.189E-02-0.146E-05
CGA:   4    -0.593840572626E+03   -0.50640E-03   -0.50675E-03  1200   0.379E-03 0.685E-05
CGA:   5    -0.593840692637E+03   -0.12001E-03   -0.12002E-03  1200   0.100E-03 0.476E-05
CGA:   6    -0.593840727224E+03   -0.34586E-04   -0.34600E-04  1200   0.335E-04-0.521E-06
CGA:   7    -0.593840738864E+03   -0.11640E-04   -0.11629E-04  1200   0.100E-04 0.360E-06
CGA:   8    -0.593840742033E+03   -0.31697E-05   -0.31737E-05  1200   0.235E-05 0.776E-06
  30 F= -.59384074E+03 E0= -.59384074E+03  d E =-.148553E-02
       N       E                     dE             d eps       ncg     rms          ort
SDA:   1    -0.593694850058E+03    0.14589E+00    0.00000E+00  1200   0.478E+00 0.000E+00
CGA:   2    -0.593812724046E+03   -0.11787E+00   -0.11788E+00  1200   0.840E-01-0.177E-03
CGA:   3    -0.593836899522E+03   -0.24175E-01   -0.24175E-01  1200   0.170E-01-0.505E-05
CGA:   4    -0.593841476845E+03   -0.45773E-02   -0.45783E-02  1200   0.343E-02 0.204E-04
CGA:   5    -0.593842565122E+03   -0.10883E-02   -0.10882E-02  1200   0.912E-03 0.153E-04
CGA:   6    -0.593842874984E+03   -0.30986E-03   -0.30990E-03  1200   0.299E-03-0.142E-05
CGA:   7    -0.593842980436E+03   -0.10545E-03   -0.10542E-03  1200   0.913E-04 0.883E-06
CGA:   8    -0.593843010446E+03   -0.30010E-04   -0.29980E-04  1200   0.228E-04 0.250E-05
CGA:   9    -0.593843018299E+03   -0.78527E-05   -0.78434E-05  1200   0.496E-05 0.483E-06
CGA:  10    -0.593843020458E+03   -0.21586E-05   -0.22796E-05  1200   0.167E-05-0.912E-06
  31 F= -.59384302E+03 E0= -.59384302E+03  d E =-.376396E-02
       N       E                     dE             d eps       ncg     rms          ort
SDA:   1    -0.593804339085E+03    0.38679E-01    0.00000E+00  1200   0.128E+00 0.000E+00
CGA:   2    -0.593836166058E+03   -0.31827E-01   -0.31820E-01  1200   0.238E-01-0.129E-03
CGA:   3    -0.593843092443E+03   -0.69264E-02   -0.69262E-02  1200   0.487E-02-0.570E-05
CGA:   4    -0.593844390267E+03   -0.12978E-02   -0.12985E-02  1200   0.958E-03 0.128E-04
CGA:   5    -0.593844686675E+03   -0.29641E-03   -0.29648E-03  1200   0.245E-03 0.779E-05
CGA:   6    -0.593844769956E+03   -0.83281E-04   -0.83303E-04  1200   0.804E-04-0.111E-05
CGA:   7    -0.593844798569E+03   -0.28613E-04   -0.28596E-04  1200   0.255E-04 0.425E-06
CGA:   8    -0.593844806807E+03   -0.82376E-05   -0.82364E-05  1200   0.617E-05 0.133E-05
CGA:   9    -0.593844808995E+03   -0.21883E-05   -0.21838E-05  1200   0.132E-05 0.263E-06
  32 F= -.59384481E+03 E0= -.59384481E+03  d E =-.178854E-02
       N       E                     dE             d eps       ncg     rms          ort
SDA:   1    -0.593840643015E+03    0.41638E-02    0.00000E+00  1200   0.135E-01 0.000E+00
CGA:   2    -0.593844014289E+03   -0.33713E-02   -0.33679E-02  1200   0.253E-02-0.424E-04
CGA:   3    -0.593844746061E+03   -0.73177E-03   -0.73173E-03  1200   0.519E-03-0.109E-05
CGA:   4    -0.593844882487E+03   -0.13643E-03   -0.13669E-03  1200   0.102E-03 0.417E-05
CGA:   5    -0.593844913494E+03   -0.31007E-04   -0.31059E-04  1200   0.260E-04 0.243E-05
CGA:   6    -0.593844922533E+03   -0.90388E-05   -0.90443E-05  1200   0.895E-05-0.296E-06
CGA:   7    -0.593844925628E+03   -0.30950E-05   -0.30910E-05  1200   0.277E-05 0.141E-06
CGA:   8    -0.593844926446E+03   -0.81781E-06   -0.82914E-06  1200   0.618E-06 0.395E-06
  33 F= -.59384493E+03 E0= -.59384493E+03  d E =-.190599E-02
       N       E                     dE             d eps       ncg     rms          ort
SDA:   1    -0.593807600770E+03    0.37325E-01    0.00000E+00  1200   0.126E+00 0.000E+00
CGA:   2    -0.593838696334E+03   -0.31096E-01   -0.31087E-01  1200   0.217E-01-0.154E-03
CGA:   3    -0.593844941182E+03   -0.62448E-02   -0.62446E-02  1200   0.441E-02-0.692E-05
CGA:   4    -0.593846124609E+03   -0.11834E-02   -0.11842E-02  1200   0.914E-03 0.153E-04
CGA:   5    -0.593846411840E+03   -0.28723E-03   -0.28724E-03  1200   0.247E-03 0.953E-05
CGA:   6    -0.593846497132E+03   -0.85292E-04   -0.85306E-04  1200   0.818E-04-0.497E-06
CGA:   7    -0.593846525712E+03   -0.28579E-04   -0.28544E-04  1200   0.248E-04 0.104E-05
CGA:   8    -0.593846533564E+03   -0.78519E-05   -0.78584E-05  1200   0.586E-05 0.153E-05
CGA:   9    -0.593846535667E+03   -0.21038E-05   -0.20989E-05  1200   0.129E-05 0.251E-06
  34 F= -.59384654E+03 E0= -.59384654E+03  d E =-.160922E-02
       N       E                     dE             d eps       ncg     rms          ort
SDA:   1    -0.593798812472E+03    0.47721E-01    0.00000E+00  1200   0.157E+00 0.000E+00
CGA:   2    -0.593837417344E+03   -0.38605E-01   -0.38595E-01  1200   0.270E-01-0.167E-03
CGA:   3    -0.593845177606E+03   -0.77603E-02   -0.77599E-02  1200   0.549E-02-0.749E-05
CGA:   4    -0.593846649928E+03   -0.14723E-02   -0.14733E-02  1200   0.115E-02 0.165E-04
CGA:   5    -0.593847007356E+03   -0.35743E-03   -0.35754E-03  1200   0.310E-03 0.104E-04
CGA:   6    -0.593847113541E+03   -0.10618E-03   -0.10619E-03  1200   0.103E-03-0.460E-06
CGA:   7    -0.593847149438E+03   -0.35897E-04   -0.35867E-04  1200   0.313E-04 0.109E-05
CGA:   8    -0.593847159402E+03   -0.99640E-05   -0.99792E-05  1200   0.745E-05 0.169E-05
CGA:   9    -0.593847162058E+03   -0.26565E-05   -0.26520E-05  1200   0.162E-05 0.287E-06
  35 F= -.59384716E+03 E0= -.59384716E+03  d E =-.223561E-02
       N       E                     dE             d eps       ncg     rms          ort
SDA:   1    -0.593820863069E+03    0.26296E-01    0.00000E+00  1200   0.864E-01 0.000E+00
CGA:   2    -0.593842561175E+03   -0.21698E-01   -0.21689E-01  1200   0.156E-01-0.123E-03
CGA:   3    -0.593847164707E+03   -0.46035E-02   -0.46033E-02  1200   0.314E-02-0.528E-05
CGA:   4    -0.593848010053E+03   -0.84535E-03   -0.84617E-03  1200   0.644E-03 0.138E-04
CGA:   5    -0.593848210230E+03   -0.20018E-03   -0.20029E-03  1200   0.161E-03 0.680E-05
CGA:   6    -0.593848266965E+03   -0.56735E-04   -0.56738E-04  1200   0.527E-04-0.114E-06
CGA:   7    -0.593848285565E+03   -0.18600E-04   -0.18570E-04  1200   0.162E-04 0.115E-05
CGA:   8    -0.593848290772E+03   -0.52067E-05   -0.52207E-05  1200   0.396E-05 0.118E-05
CGA:   9    -0.593848292222E+03   -0.14504E-05   -0.14482E-05  1200   0.935E-06 0.149E-06
  36 F= -.59384829E+03 E0= -.59384829E+03  d E =-.113016E-02
       N       E                     dE             d eps       ncg     rms          ort
SDA:   1    -0.593848095616E+03    0.19516E-03    0.00000E+00  1200   0.634E-03 0.000E+00
CGA:   2    -0.593848258095E+03   -0.16248E-03   -0.16157E-03  1200   0.119E-03-0.105E-04
CGA:   3    -0.593848291986E+03   -0.33891E-04   -0.33886E-04  1200   0.244E-04-0.122E-06
CGA:   4    -0.593848297981E+03   -0.59950E-05   -0.60879E-05  1200   0.496E-05 0.110E-05
CGA:   5    -0.593848299362E+03   -0.13802E-05   -0.14125E-05  1200   0.115E-05 0.559E-06
CGA:   6    -0.593848299802E+03   -0.43991E-06   -0.43874E-06  1200   0.440E-06 0.627E-07
CGA:   7    -0.593848299938E+03   -0.13608E-06   -0.13828E-06  1200   0.128E-06 0.758E-07
CGA:   8    -0.593848299960E+03   -0.21992E-07   -0.30529E-07  1200   0.420E-07 0.693E-07
  37 F= -.59384830E+03 E0= -.59384830E+03  d E =-.113790E-02
       N       E                     dE             d eps       ncg     rms          ort
SDA:   1    -0.593823851034E+03    0.24449E-01    0.00000E+00  1200   0.822E-01 0.000E+00
CGA:   2    -0.593844102280E+03   -0.20251E-01   -0.20244E-01  1200   0.144E-01-0.117E-03
CGA:   3    -0.593848336225E+03   -0.42339E-02   -0.42338E-02  1200   0.298E-02-0.682E-05
CGA:   4    -0.593849147230E+03   -0.81100E-03   -0.81147E-03  1200   0.628E-03 0.117E-04
CGA:   5    -0.593849343778E+03   -0.19655E-03   -0.19653E-03  1200   0.160E-03 0.544E-05
CGA:   6    -0.593849399810E+03   -0.56032E-04   -0.56053E-04  1200   0.513E-04-0.541E-06
CGA:   7    -0.593849417701E+03   -0.17891E-04   -0.17855E-04  1200   0.155E-04 0.933E-06
CGA:   8    -0.593849422673E+03   -0.49726E-05   -0.49702E-05  1200   0.375E-05 0.109E-05
  38 F= -.59384942E+03 E0= -.59384942E+03  d E =-.112271E-02
       N       E                     dE             d eps       ncg     rms          ort
SDA:   1    -0.593848318800E+03    0.10989E-02    0.00000E+00  1200   0.365E-02 0.000E+00
CGA:   2    -0.593849222712E+03   -0.90391E-03   -0.90216E-03  1200   0.644E-03-0.261E-04
CGA:   3    -0.593849410225E+03   -0.18751E-03   -0.18749E-03  1200   0.131E-03-0.106E-05
CGA:   4    -0.593849445488E+03   -0.35263E-04   -0.35370E-04  1200   0.262E-04 0.263E-05
CGA:   5    -0.593849453883E+03   -0.83950E-05   -0.83898E-05  1200   0.668E-05 0.107E-05
CGA:   6    -0.593849456457E+03   -0.25740E-05   -0.25802E-05  1200   0.236E-05-0.103E-06
CGA:   7    -0.593849457205E+03   -0.74841E-06   -0.74612E-06  1200   0.625E-06 0.224E-06
CGA:   8    -0.593849457372E+03   -0.16721E-06   -0.17714E-06  1200   0.154E-06 0.188E-06
  39 F= -.59384946E+03 E0= -.59384946E+03  d E =-.115741E-02
       N       E                     dE             d eps       ncg     rms          ort
SDA:   1    -0.593837227339E+03    0.12230E-01    0.00000E+00  1200   0.406E-01 0.000E+00
CGA:   2    -0.593847614840E+03   -0.10388E-01   -0.10385E-01  1200   0.730E-02-0.515E-04
CGA:   3    -0.593849804139E+03   -0.21893E-02   -0.21893E-02  1200   0.141E-02 0.492E-05
CGA:   4    -0.593850192102E+03   -0.38796E-03   -0.38808E-03  1200   0.312E-03 0.382E-05
CGA:   5    -0.593850286081E+03   -0.93979E-04   -0.93983E-04  1200   0.787E-04 0.131E-05
CGA:   6    -0.593850314027E+03   -0.27947E-04   -0.27977E-04  1200   0.250E-04-0.596E-06
CGA:   7    -0.593850322883E+03   -0.88557E-05   -0.88273E-05  1200   0.755E-05 0.583E-06
CGA:   8    -0.593850325309E+03   -0.24256E-05   -0.24228E-05  1200   0.186E-05 0.567E-06
  40 F= -.59385033E+03 E0= -.59385033E+03  d E =-.867936E-03
       N       E                     dE             d eps       ncg     rms          ort
SDA:   1    -0.593835674754E+03    0.14648E-01    0.00000E+00  1200   0.464E-01 0.000E+00
CGA:   2    -0.593847540736E+03   -0.11866E-01   -0.11863E-01  1200   0.835E-02-0.547E-04
CGA:   3    -0.593850042541E+03   -0.25018E-02   -0.25018E-02  1200   0.161E-02 0.513E-05
CGA:   4    -0.593850486618E+03   -0.44408E-03   -0.44421E-03  1200   0.354E-03 0.412E-05
CGA:   5    -0.593850593885E+03   -0.10727E-03   -0.10727E-03  1200   0.898E-04 0.138E-05
CGA:   6    -0.593850625857E+03   -0.31972E-04   -0.32003E-04  1200   0.286E-04-0.631E-06
CGA:   7    -0.593850636009E+03   -0.10152E-04   -0.10121E-04  1200   0.861E-05 0.641E-06
CGA:   8    -0.593850638790E+03   -0.27809E-05   -0.27782E-05  1200   0.213E-05 0.602E-06
  41 F= -.59385064E+03 E0= -.59385064E+03  d E =-.118142E-02
       N       E                     dE             d eps       ncg     rms          ort
SDA:   1    -0.593844931110E+03    0.57049E-02    0.00000E+00  1200   0.192E-01 0.000E+00
CGA:   2    -0.593849918886E+03   -0.49878E-02   -0.49866E-02  1200   0.351E-02-0.240E-04
CGA:   3    -0.593850968488E+03   -0.10496E-02   -0.10496E-02  1200   0.682E-03 0.456E-05
CGA:   4    -0.593851155350E+03   -0.18686E-03   -0.18695E-03  1200   0.149E-03 0.254E-05
CGA:   5    -0.593851199834E+03   -0.44484E-04   -0.44489E-04  1200   0.365E-04 0.549E-06
CGA:   6    -0.593851212676E+03   -0.12842E-04   -0.12840E-04  1200   0.114E-04 0.238E-07
CGA:   7    -0.593851216724E+03   -0.40487E-05   -0.40310E-05  1200   0.345E-05 0.398E-06
CGA:   8    -0.593851217852E+03   -0.11278E-05   -0.11264E-05  1200   0.869E-06 0.308E-06
  42 F= -.59385122E+03 E0= -.59385122E+03  d E =-.579062E-03
       N       E                     dE             d eps       ncg     rms          ort
SDA:   1    -0.593844451919E+03    0.67648E-02    0.00000E+00  1200   0.213E-01 0.000E+00
CGA:   2    -0.593849982524E+03   -0.55306E-02   -0.55293E-02  1200   0.389E-02-0.250E-04
CGA:   3    -0.593851146161E+03   -0.11636E-02   -0.11637E-02  1200   0.755E-03 0.480E-05
CGA:   4    -0.593851353215E+03   -0.20705E-03   -0.20715E-03  1200   0.165E-03 0.259E-05
CGA:   5    -0.593851402485E+03   -0.49270E-04   -0.49275E-04  1200   0.404E-04 0.582E-06
CGA:   6    -0.593851416682E+03   -0.14197E-04   -0.14197E-04  1200   0.126E-04 0.105E-07
CGA:   7    -0.593851421160E+03   -0.44780E-05   -0.44596E-05  1200   0.382E-05 0.424E-06
CGA:   8    -0.593851422411E+03   -0.12509E-05   -0.12495E-05  1200   0.963E-06 0.321E-06
  43 F= -.59385142E+03 E0= -.59385142E+03  d E =-.783621E-03
       N       E                     dE             d eps       ncg     rms          ort
SDA:   1    -0.593850611112E+03    0.81005E-03    0.00000E+00  1200   0.316E-02 0.000E+00
CGA:   2    -0.593851457615E+03   -0.84650E-03   -0.84617E-03  1200   0.588E-03-0.724E-05
CGA:   3    -0.593851631128E+03   -0.17351E-03   -0.17354E-03  1200   0.110E-03 0.151E-05
CGA:   4    -0.593851661774E+03   -0.30646E-04   -0.30678E-04  1200   0.239E-04 0.942E-06
CGA:   5    -0.593851668904E+03   -0.71301E-05   -0.71342E-05  1200   0.599E-05 0.342E-06
CGA:   6    -0.593851671049E+03   -0.21448E-05   -0.21408E-05  1200   0.192E-05 0.876E-07
CGA:   7    -0.593851671737E+03   -0.68781E-06   -0.68340E-06  1200   0.565E-06 0.110E-06
CGA:   8    -0.593851671920E+03   -0.18275E-06   -0.18316E-06  1200   0.141E-06 0.728E-07
  44 F= -.59385167E+03 E0= -.59385167E+03  d E =-.249509E-03
       N       E                     dE             d eps       ncg     rms          ort
SDA:   1    -0.593846600183E+03    0.50716E-02    0.00000E+00  1200   0.158E-01 0.000E+00
CGA:   2    -0.593850825309E+03   -0.42251E-02   -0.42244E-02  1200   0.293E-02-0.152E-04
CGA:   3    -0.593851693872E+03   -0.86856E-03   -0.86861E-03  1200   0.551E-03 0.315E-05
CGA:   4    -0.593851847456E+03   -0.15358E-03   -0.15365E-03  1200   0.120E-03 0.194E-05
CGA:   5    -0.593851883208E+03   -0.35752E-04   -0.35764E-04  1200   0.299E-04 0.795E-06
CGA:   6    -0.593851893836E+03   -0.10628E-04   -0.10619E-04  1200   0.951E-05 0.188E-06
CGA:   7    -0.593851897302E+03   -0.34667E-05   -0.34542E-05  1200   0.287E-05 0.251E-06
CGA:   8    -0.593851898257E+03   -0.95424E-06   -0.95267E-06  1200   0.744E-06 0.168E-06
  45 F= -.59385190E+03 E0= -.59385190E+03  d E =-.475845E-03
       N       E                     dE             d eps       ncg     rms          ort
SDA:   1    -0.593850758535E+03    0.11388E-02    0.00000E+00  1200   0.414E-02 0.000E+00
CGA:   2    -0.593851869984E+03   -0.11114E-02   -0.11111E-02  1200   0.814E-03-0.739E-05
CGA:   3    -0.593852106889E+03   -0.23690E-03   -0.23692E-03  1200   0.153E-03 0.502E-06
CGA:   4    -0.593852148904E+03   -0.42015E-04   -0.42054E-04  1200   0.326E-04 0.996E-06
CGA:   5    -0.593852158632E+03   -0.97280E-05   -0.97281E-05  1200   0.803E-05-0.114E-07
CGA:   6    -0.593852161431E+03   -0.27991E-05   -0.27984E-05  1200   0.253E-05 0.189E-07
CGA:   7    -0.593852162318E+03   -0.88653E-06   -0.88230E-06  1200   0.755E-06 0.108E-06
CGA:   8    -0.593852162560E+03   -0.24257E-06   -0.24293E-06  1200   0.181E-06 0.938E-07
  46 F= -.59385216E+03 E0= -.59385216E+03  d E =-.264304E-03
       N       E                     dE             d eps       ncg     rms          ort
SDA:   1    -0.593839950197E+03    0.12212E-01    0.00000E+00  1200   0.372E-01 0.000E+00
CGA:   2    -0.593849931781E+03   -0.99816E-02   -0.99807E-02  1200   0.730E-02-0.206E-04
CGA:   3    -0.593852062148E+03   -0.21304E-02   -0.21304E-02  1200   0.138E-02 0.100E-05
CGA:   4    -0.593852441177E+03   -0.37903E-03   -0.37913E-03  1200   0.297E-03 0.280E-05
CGA:   5    -0.593852528870E+03   -0.87693E-04   -0.87693E-04  1200   0.721E-04 0.405E-07
CGA:   6    -0.593852553983E+03   -0.25113E-04   -0.25110E-04  1200   0.227E-04 0.706E-07
CGA:   7    -0.593852562129E+03   -0.81464E-05   -0.81315E-05  1200   0.711E-05 0.323E-06
CGA:   8    -0.593852564496E+03   -0.23665E-05   -0.23623E-05  1200   0.179E-05 0.307E-06
  47 F= -.59385256E+03 E0= -.59385256E+03  d E =-.666239E-03
       N       E                     dE             d eps       ncg     rms          ort
SDA:   1    -0.593850802012E+03    0.17601E-02    0.00000E+00  1200   0.585E-02 0.000E+00
CGA:   2    -0.593852451996E+03   -0.16500E-02   -0.16500E-02  1200   0.122E-02-0.683E-06
CGA:   3    -0.593852808986E+03   -0.35699E-03   -0.35701E-03  1200   0.233E-03 0.804E-06
CGA:   4    -0.593852872464E+03   -0.63477E-04   -0.63503E-04  1200   0.504E-04 0.640E-06
CGA:   5    -0.593852887132E+03   -0.14668E-04   -0.14663E-04  1200   0.123E-04-0.226E-06
CGA:   6    -0.593852891397E+03   -0.42654E-05   -0.42636E-05  1200   0.385E-05 0.465E-07
CGA:   7    -0.593852892771E+03   -0.13743E-05   -0.13685E-05  1200   0.117E-05 0.138E-06
CGA:   8    -0.593852893167E+03   -0.39568E-06   -0.39491E-06  1200   0.291E-06 0.825E-07
  48 F= -.59385289E+03 E0= -.59385289E+03  d E =-.328671E-03
       N       E                     dE             d eps       ncg     rms          ort
SDA:   1    -0.593834546468E+03    0.18346E-01    0.00000E+00  1200   0.526E-01 0.000E+00
CGA:   2    -0.593849385039E+03   -0.14839E-01   -0.14839E-01  1200   0.110E-01-0.399E-06
CGA:   3    -0.593852597124E+03   -0.32121E-02   -0.32121E-02  1200   0.209E-02 0.199E-05
CGA:   4    -0.593853168206E+03   -0.57108E-03   -0.57115E-03  1200   0.457E-03 0.169E-05
CGA:   5    -0.593853299700E+03   -0.13149E-03   -0.13148E-03  1200   0.109E-03-0.617E-06
CGA:   6    -0.593853337762E+03   -0.38062E-04   -0.38056E-04  1200   0.343E-04 0.168E-06
CGA:   7    -0.593853350220E+03   -0.12457E-04   -0.12437E-04  1200   0.108E-04 0.401E-06
CGA:   8    -0.593853353884E+03   -0.36643E-05   -0.36590E-05  1200   0.276E-05 0.256E-06
  49 F= -.59385335E+03 E0= -.59385335E+03  d E =-.789388E-03
       N       E                     dE             d eps       ncg     rms          ort
SDA:   1    -0.593849611174E+03    0.37390E-02    0.00000E+00  1200   0.119E-01 0.000E+00
CGA:   2    -0.593852897783E+03   -0.32866E-02   -0.32871E-02  1200   0.234E-02 0.132E-04
CGA:   3    -0.593853582994E+03   -0.68521E-03   -0.68523E-03  1200   0.444E-03 0.809E-06
CGA:   4    -0.593853706439E+03   -0.12345E-03   -0.12341E-03  1200   0.967E-04-0.902E-06
CGA:   5    -0.593853734867E+03   -0.28428E-04   -0.28426E-04  1200   0.238E-04-0.955E-07
CGA:   6    -0.593853743287E+03   -0.84204E-05   -0.84170E-05  1200   0.748E-05 0.851E-07
CGA:   7    -0.593853746070E+03   -0.27831E-05   -0.27862E-05  1200   0.241E-05-0.566E-07
CGA:   8    -0.593853746873E+03   -0.80237E-06   -0.80218E-06  1200   0.618E-06 0.158E-07
  50 F= -.59385375E+03 E0= -.59385375E+03  d E =-.392989E-03
       N       E                     dE             d eps       ncg     rms          ort
SDA:   1    -0.593817123516E+03    0.36623E-01    0.00000E+00  1200   0.107E+00 0.000E+00
CGA:   2    -0.593846703248E+03   -0.29580E-01   -0.29582E-01  1200   0.211E-01 0.432E-04
CGA:   3    -0.593852864501E+03   -0.61613E-02   -0.61613E-02  1200   0.399E-02 0.771E-06
CGA:   4    -0.593853970965E+03   -0.11065E-02   -0.11063E-02  1200   0.872E-03-0.308E-05
CGA:   5    -0.593854226443E+03   -0.25548E-03   -0.25547E-03  1200   0.213E-03-0.193E-06
CGA:   6    -0.593854301664E+03   -0.75221E-04   -0.75208E-04  1200   0.670E-04 0.321E-06
CGA:   7    -0.593854326336E+03   -0.24672E-04   -0.24682E-04  1200   0.214E-04-0.194E-06
CGA:   8    -0.593854333540E+03   -0.72040E-05   -0.72030E-05  1200   0.554E-05 0.404E-07
CGA:   9    -0.593854335373E+03   -0.18323E-05   -0.18317E-05  1200   0.126E-05 0.416E-07
  51 F= -.59385434E+03 E0= -.59385434E+03  d E =-.981489E-03
       N       E                     dE             d eps       ncg     rms          ort
SDA:   1    -0.593851730454E+03    0.26031E-02    0.00000E+00  1200   0.871E-02 0.000E+00
CGA:   2    -0.593854106283E+03   -0.23758E-02   -0.23765E-02  1200   0.163E-02 0.141E-04
CGA:   3    -0.593854585008E+03   -0.47873E-03   -0.47872E-03  1200   0.305E-03-0.158E-06
CGA:   4    -0.593854669825E+03   -0.84816E-04   -0.84789E-04  1200   0.682E-04-0.707E-06
CGA:   5    -0.593854689342E+03   -0.19518E-04   -0.19517E-04  1200   0.169E-04-0.216E-07
CGA:   6    -0.593854695195E+03   -0.58525E-05   -0.58482E-05  1200   0.523E-05 0.134E-06
CGA:   7    -0.593854697152E+03   -0.19575E-05   -0.19627E-05  1200   0.176E-05-0.910E-07
CGA:   8    -0.593854697729E+03   -0.57630E-06   -0.57617E-06  1200   0.468E-06-0.227E-07
  52 F= -.59385470E+03 E0= -.59385470E+03  d E =-.362356E-03
       N       E                     dE             d eps       ncg     rms          ort
SDA:   1    -0.593828519028E+03    0.26178E-01    0.00000E+00  1200   0.785E-01 0.000E+00
CGA:   2    -0.593849939148E+03   -0.21420E-01   -0.21422E-01  1200   0.147E-01 0.446E-04
CGA:   3    -0.593854256753E+03   -0.43176E-02   -0.43176E-02  1200   0.275E-02-0.152E-05
CGA:   4    -0.593855021444E+03   -0.76469E-03   -0.76460E-03  1200   0.608E-03-0.247E-05
CGA:   5    -0.593855197476E+03   -0.17603E-03   -0.17603E-03  1200   0.151E-03 0.239E-07
CGA:   6    -0.593855250024E+03   -0.52548E-04   -0.52532E-04  1200   0.466E-04 0.432E-06
CGA:   7    -0.593855267215E+03   -0.17191E-04   -0.17208E-04  1200   0.151E-04-0.305E-06
CGA:   8    -0.593855272216E+03   -0.50013E-05   -0.50023E-05  1200   0.400E-05-0.581E-07
CGA:   9    -0.593855273511E+03   -0.12952E-05   -0.12947E-05  1200   0.902E-06 0.356E-07
  53 F= -.59385527E+03 E0= -.59385527E+03  d E =-.938139E-03
       N       E                     dE             d eps       ncg     rms          ort
SDA:   1    -0.593853499450E+03    0.17728E-02    0.00000E+00  1200   0.528E-02 0.000E+00
CGA:   2    -0.593854939046E+03   -0.14396E-02   -0.14401E-02  1200   0.987E-03 0.109E-04
CGA:   3    -0.593855229137E+03   -0.29009E-03   -0.29009E-03  1200   0.185E-03-0.779E-07
CGA:   4    -0.593855280573E+03   -0.51436E-04   -0.51414E-04  1200   0.416E-04-0.552E-06
CGA:   5    -0.593855292427E+03   -0.11854E-04   -0.11853E-04  1200   0.103E-04-0.273E-07
CGA:   6    -0.593855295986E+03   -0.35587E-05   -0.35557E-05  1200   0.320E-05 0.104E-06
CGA:   7    -0.593855297187E+03   -0.12006E-05   -0.12049E-05  1200   0.109E-05-0.691E-07
CGA:   8    -0.593855297542E+03   -0.35577E-06   -0.35600E-06  1200   0.291E-06-0.178E-07
  54 F= -.59385530E+03 E0= -.59385530E+03  d E =-.962170E-03
       N       E                     dE             d eps       ncg     rms          ort
SDA:   1    -0.593851374477E+03    0.39227E-02    0.00000E+00  1200   0.121E-01 0.000E+00
CGA:   2    -0.593854723018E+03   -0.33485E-02   -0.33490E-02  1200   0.235E-02 0.115E-04
CGA:   3    -0.593855406555E+03   -0.68354E-03   -0.68347E-03  1200   0.447E-03-0.255E-05
CGA:   4    -0.593855527923E+03   -0.12137E-03   -0.12137E-03  1200   0.951E-04 0.606E-07
CGA:   5    -0.593855555560E+03   -0.27637E-04   -0.27636E-04  1200   0.225E-04-0.186E-08
CGA:   6    -0.593855563402E+03   -0.78419E-05   -0.78348E-05  1200   0.698E-05 0.199E-06
CGA:   7    -0.593855565987E+03   -0.25853E-05   -0.25854E-05  1200   0.229E-05 0.957E-08
CGA:   8    -0.593855566750E+03   -0.76275E-06   -0.76153E-06  1200   0.585E-06 0.527E-07
  55 F= -.59385557E+03 E0= -.59385557E+03  d E =-.269208E-03
       N       E                     dE             d eps       ncg     rms          ort
SDA:   1    -0.593818228889E+03    0.37337E-01    0.00000E+00  1200   0.108E+00 0.000E+00
CGA:   2    -0.593848383285E+03   -0.30154E-01   -0.30156E-01  1200   0.211E-01 0.366E-04
CGA:   3    -0.593854530599E+03   -0.61473E-02   -0.61471E-02  1200   0.402E-02-0.872E-05
CGA:   4    -0.593855623353E+03   -0.10928E-02   -0.10927E-02  1200   0.858E-03-0.273E-06
CGA:   5    -0.593855872237E+03   -0.24888E-03   -0.24889E-03  1200   0.203E-03 0.114E-06
CGA:   6    -0.593855943210E+03   -0.70973E-04   -0.70949E-04  1200   0.635E-04 0.629E-06
CGA:   7    -0.593855966511E+03   -0.23302E-04   -0.23302E-04  1200   0.206E-04-0.110E-08
CGA:   8    -0.593855973470E+03   -0.69589E-05   -0.69548E-05  1200   0.539E-05 0.166E-06
CGA:   9    -0.593855975243E+03   -0.17727E-05   -0.17720E-05  1200   0.122E-05 0.744E-07
  56 F= -.59385598E+03 E0= -.59385598E+03  d E =-.677700E-03
       N       E                     dE             d eps       ncg     rms          ort
SDA:   1    -0.593848977222E+03    0.69962E-02    0.00000E+00  1200   0.205E-01 0.000E+00
CGA:   2    -0.593854833280E+03   -0.58561E-02   -0.58565E-02  1200   0.429E-02 0.128E-04
CGA:   3    -0.593856065122E+03   -0.12318E-02   -0.12317E-02  1200   0.843E-03-0.604E-05
CGA:   4    -0.593856290925E+03   -0.22580E-03   -0.22576E-03  1200   0.174E-03-0.959E-06
CGA:   5    -0.593856342016E+03   -0.51091E-04   -0.51081E-04  1200   0.412E-04-0.484E-06
CGA:   6    -0.593856356422E+03   -0.14407E-04   -0.14410E-04  1200   0.133E-04-0.860E-07
CGA:   7    -0.593856361249E+03   -0.48263E-05   -0.48301E-05  1200   0.437E-05-0.751E-07
CGA:   8    -0.593856362690E+03   -0.14418E-05   -0.14406E-05  1200   0.109E-05 0.673E-07
  57 F= -.59385636E+03 E0= -.59385636E+03  d E =-.387448E-03
       N       E                     dE             d eps       ncg     rms          ort
SDA:   1    -0.593852318959E+03    0.40423E-02    0.00000E+00  1200   0.115E-01 0.000E+00
CGA:   2    -0.593855591899E+03   -0.32729E-02   -0.32733E-02  1200   0.240E-02 0.959E-05
CGA:   3    -0.593856281799E+03   -0.68990E-03   -0.68977E-03  1200   0.471E-03-0.442E-05
CGA:   4    -0.593856408369E+03   -0.12657E-03   -0.12654E-03  1200   0.964E-04-0.717E-06
CGA:   5    -0.593856436895E+03   -0.28526E-04   -0.28520E-04  1200   0.228E-04-0.366E-06
CGA:   6    -0.593856444934E+03   -0.80388E-05   -0.80418E-05  1200   0.737E-05-0.661E-07
CGA:   7    -0.593856447615E+03   -0.26815E-05   -0.26842E-05  1200   0.241E-05-0.554E-07
CGA:   8    -0.593856448401E+03   -0.78583E-06   -0.78516E-06  1200   0.593E-06 0.536E-07
  58 F= -.59385645E+03 E0= -.59385645E+03  d E =-.473159E-03
       N       E                     dE             d eps       ncg     rms          ort
SDA:   1    -0.593847137961E+03    0.93097E-02    0.00000E+00  1200   0.269E-01 0.000E+00
CGA:   2    -0.593854833314E+03   -0.76954E-02   -0.76965E-02  1200   0.561E-02 0.365E-04
CGA:   3    -0.593856431620E+03   -0.15983E-02   -0.15981E-02  1200   0.111E-02-0.669E-05
CGA:   4    -0.593856727748E+03   -0.29613E-03   -0.29599E-03  1200   0.225E-03-0.285E-05
CGA:   5    -0.593856794356E+03   -0.66609E-04   -0.66602E-04  1200   0.532E-04-0.481E-06
CGA:   6    -0.593856813046E+03   -0.18690E-04   -0.18686E-04  1200   0.171E-04 0.659E-07
CGA:   7    -0.593856819326E+03   -0.62797E-05   -0.62960E-05  1200   0.571E-05-0.295E-06
CGA:   8    -0.593856821200E+03   -0.18747E-05   -0.18750E-05  1200   0.144E-05-0.214E-07
  59 F= -.59385682E+03 E0= -.59385682E+03  d E =-.372799E-03
       N       E                     dE             d eps       ncg     rms          ort
SDA:   1    -0.593824667555E+03    0.32152E-01    0.00000E+00  1200   0.902E-01 0.000E+00
CGA:   2    -0.593850432770E+03   -0.25765E-01   -0.25767E-01  1200   0.188E-01 0.664E-04
CGA:   3    -0.593855777827E+03   -0.53451E-02   -0.53447E-02  1200   0.370E-02-0.128E-04
CGA:   4    -0.593856767858E+03   -0.99003E-03   -0.98977E-03  1200   0.750E-03-0.549E-05
CGA:   5    -0.593856990736E+03   -0.22288E-03   -0.22287E-03  1200   0.178E-03-0.813E-06
CGA:   6    -0.593857053349E+03   -0.62613E-04   -0.62607E-04  1200   0.572E-04 0.147E-06
CGA:   7    -0.593857074232E+03   -0.20883E-04   -0.20912E-04  1200   0.188E-04-0.551E-06
CGA:   8    -0.593857080493E+03   -0.62616E-05   -0.62628E-05  1200   0.481E-05-0.434E-07
CGA:   9    -0.593857082040E+03   -0.15467E-05   -0.15463E-05  1200   0.102E-05 0.102E-06
  60 F= -.59385708E+03 E0= -.59385708E+03  d E =-.633639E-03
       N       E                     dE             d eps       ncg     rms          ort
SDA:   1    -0.593852229913E+03    0.48506E-02    0.00000E+00  1200   0.145E-01 0.000E+00
CGA:   2    -0.593856343989E+03   -0.41141E-02   -0.41153E-02  1200   0.296E-02 0.360E-04
CGA:   3    -0.593857189776E+03   -0.84579E-03   -0.84565E-03  1200   0.585E-03-0.426E-05
CGA:   4    -0.593857345827E+03   -0.15605E-03   -0.15591E-03  1200   0.118E-03-0.282E-05
CGA:   5    -0.593857380470E+03   -0.34643E-04   -0.34640E-04  1200   0.273E-04-0.165E-06
CGA:   6    -0.593857390060E+03   -0.95894E-05   -0.95848E-05  1200   0.871E-05 0.118E-06
CGA:   7    -0.593857393337E+03   -0.32772E-05   -0.32981E-05  1200   0.309E-05-0.336E-06
CGA:   8    -0.593857394341E+03   -0.10038E-05   -0.10062E-05  1200   0.805E-06-0.949E-07
  61 F= -.59385739E+03 E0= -.59385739E+03  d E =-.312300E-03
       N       E                     dE             d eps       ncg     rms          ort
SDA:   1    -0.593821332611E+03    0.36061E-01    0.00000E+00  1200   0.102E+00 0.000E+00
CGA:   2    -0.593850342001E+03   -0.29009E-01   -0.29012E-01  1200   0.209E-01 0.948E-04
CGA:   3    -0.593856297065E+03   -0.59551E-02   -0.59547E-02  1200   0.411E-02-0.124E-04
CGA:   4    -0.593857393959E+03   -0.10969E-02   -0.10965E-02  1200   0.821E-03-0.802E-05
CGA:   5    -0.593857637881E+03   -0.24392E-03   -0.24392E-03  1200   0.191E-03-0.323E-06
CGA:   6    -0.593857705245E+03   -0.67364E-04   -0.67350E-04  1200   0.607E-04 0.339E-06
CGA:   7    -0.593857727623E+03   -0.22378E-04   -0.22427E-04  1200   0.204E-04-0.898E-06
CGA:   8    -0.593857734422E+03   -0.67991E-05   -0.68049E-05  1200   0.532E-05-0.241E-06
CGA:   9    -0.593857736110E+03   -0.16881E-05   -0.16880E-05  1200   0.113E-05 0.105E-06
  62 F= -.59385774E+03 E0= -.59385774E+03  d E =-.654070E-03
       N       E                     dE             d eps       ncg     rms          ort
SDA:   1    -0.593852260609E+03    0.54738E-02    0.00000E+00  1200   0.162E-01 0.000E+00
CGA:   2    -0.593856888097E+03   -0.46275E-02   -0.46288E-02  1200   0.328E-02 0.380E-04
CGA:   3    -0.593857813718E+03   -0.92562E-03   -0.92546E-03  1200   0.657E-03-0.462E-05
CGA:   4    -0.593857988526E+03   -0.17481E-03   -0.17465E-03  1200   0.131E-03-0.317E-05
CGA:   5    -0.593858027170E+03   -0.38644E-04   -0.38642E-04  1200   0.303E-04-0.138E-06
CGA:   6    -0.593858037810E+03   -0.10640E-04   -0.10640E-04  1200   0.977E-05-0.123E-07
CGA:   7    -0.593858041439E+03   -0.36291E-05   -0.36538E-05  1200   0.345E-05-0.412E-06
CGA:   8    -0.593858042555E+03   -0.11163E-05   -0.11189E-05  1200   0.906E-06-0.127E-06
  63 F= -.59385804E+03 E0= -.59385804E+03  d E =-.306445E-03
       N       E                     dE             d eps       ncg     rms          ort
SDA:   1    -0.593844577720E+03    0.13464E-01    0.00000E+00  1200   0.382E-01 0.000E+00
CGA:   2    -0.593855494832E+03   -0.10917E-01   -0.10919E-01  1200   0.774E-02 0.587E-04
CGA:   3    -0.593857677814E+03   -0.21830E-02   -0.21827E-02  1200   0.155E-02-0.735E-05
CGA:   4    -0.593858089658E+03   -0.41184E-03   -0.41160E-03  1200   0.306E-03-0.505E-05
CGA:   5    -0.593858180667E+03   -0.91009E-04   -0.91007E-04  1200   0.709E-04-0.174E-06
CGA:   6    -0.593858205630E+03   -0.24963E-04   -0.24963E-04  1200   0.227E-04-0.178E-07
CGA:   7    -0.593858213991E+03   -0.83605E-05   -0.83959E-05  1200   0.775E-05-0.624E-06
CGA:   8    -0.593858216536E+03   -0.25453E-05   -0.25493E-05  1200   0.203E-05-0.187E-06
  64 F= -.59385822E+03 E0= -.59385822E+03  d E =-.480426E-03
       N       E                     dE             d eps       ncg     rms          ort
SDA:   1    -0.593851180263E+03    0.70337E-02    0.00000E+00  1200   0.201E-01 0.000E+00
CGA:   2    -0.593857021580E+03   -0.58413E-02   -0.58420E-02  1200   0.433E-02 0.270E-04
CGA:   3    -0.593858240430E+03   -0.12188E-02   -0.12187E-02  1200   0.871E-03-0.424E-05
CGA:   4    -0.593858470701E+03   -0.23027E-03   -0.23016E-03  1200   0.170E-03-0.211E-05
CGA:   5    -0.593858521487E+03   -0.50787E-04   -0.50782E-04  1200   0.398E-04-0.338E-06
CGA:   6    -0.593858535484E+03   -0.13996E-04   -0.13997E-04  1200   0.129E-04-0.690E-08
CGA:   7    -0.593858540191E+03   -0.47078E-05   -0.47189E-05  1200   0.432E-05-0.210E-06
CGA:   8    -0.593858541623E+03   -0.14313E-05   -0.14318E-05  1200   0.109E-05-0.163E-07
  65 F= -.59385854E+03 E0= -.59385854E+03  d E =-.325087E-03
       N       E                     dE             d eps       ncg     rms          ort
SDA:   1    -0.593824532042E+03    0.34008E-01    0.00000E+00  1200   0.934E-01 0.000E+00
CGA:   2    -0.593851747850E+03   -0.27216E-01   -0.27217E-01  1200   0.202E-01 0.571E-04
CGA:   3    -0.593857419742E+03   -0.56719E-02   -0.56716E-02  1200   0.405E-02-0.971E-05
CGA:   4    -0.593858491012E+03   -0.10713E-02   -0.10710E-02  1200   0.793E-03-0.482E-05
CGA:   5    -0.593858727830E+03   -0.23682E-03   -0.23681E-03  1200   0.185E-03-0.685E-06
CGA:   6    -0.593858792946E+03   -0.65116E-04   -0.65113E-04  1200   0.601E-04 0.644E-07
CGA:   7    -0.593858814722E+03   -0.21776E-04   -0.21799E-04  1200   0.198E-04-0.479E-06
CGA:   8    -0.593858821383E+03   -0.66618E-05   -0.66626E-05  1200   0.503E-05-0.248E-07
CGA:   9    -0.593858823036E+03   -0.16522E-05   -0.16518E-05  1200   0.108E-05 0.786E-07
  66 F= -.59385882E+03 E0= -.59385882E+03  d E =-.606500E-03
       N       E                     dE             d eps       ncg     rms          ort
SDA:   1    -0.593850569229E+03    0.82522E-02    0.00000E+00  1200   0.230E-01 0.000E+00
CGA:   2    -0.593857301311E+03   -0.67321E-02   -0.67324E-02  1200   0.514E-02 0.133E-04
CGA:   3    -0.593858741240E+03   -0.14399E-02   -0.14398E-02  1200   0.101E-02-0.387E-05
CGA:   4    -0.593859007411E+03   -0.26617E-03   -0.26617E-03  1200   0.198E-03 0.497E-07
CGA:   5    -0.593859064952E+03   -0.57541E-04   -0.57537E-04  1200   0.451E-04-0.157E-06
CGA:   6    -0.593859080491E+03   -0.15540E-04   -0.15532E-04  1200   0.141E-04 0.233E-06
CGA:   7    -0.593859085612E+03   -0.51205E-05   -0.51171E-05  1200   0.465E-05 0.647E-07
CGA:   8    -0.593859087205E+03   -0.15938E-05   -0.15923E-05  1200   0.119E-05 0.688E-07
  67 F= -.59385909E+03 E0= -.59385909E+03  d E =-.264170E-03
       N       E                     dE             d eps       ncg     rms          ort
SDA:   1    -0.593855727399E+03    0.33582E-02    0.00000E+00  1200   0.921E-02 0.000E+00
CGA:   2    -0.593858417435E+03   -0.26900E-02   -0.26903E-02  1200   0.205E-02 0.847E-05
CGA:   3    -0.593858994048E+03   -0.57661E-03   -0.57653E-03  1200   0.405E-03-0.239E-05
CGA:   4    -0.593859100641E+03   -0.10659E-03   -0.10659E-03  1200   0.779E-04 0.324E-07
CGA:   5    -0.593859123557E+03   -0.22916E-04   -0.22913E-04  1200   0.179E-04-0.110E-06
CGA:   6    -0.593859129742E+03   -0.61852E-05   -0.61807E-05  1200   0.556E-05 0.145E-06
CGA:   7    -0.593859131775E+03   -0.20329E-05   -0.20309E-05  1200   0.183E-05 0.371E-07
CGA:   8    -0.593859132399E+03   -0.62395E-06   -0.62307E-06  1200   0.465E-06 0.429E-07
  68 F= -.59385913E+03 E0= -.59385913E+03  d E =-.309364E-03
       N       E                     dE             d eps       ncg     rms          ort
SDA:   1    -0.593855742257E+03    0.33895E-02    0.00000E+00  1200   0.977E-02 0.000E+00
CGA:   2    -0.593858610507E+03   -0.28683E-02   -0.28684E-02  1200   0.214E-02 0.664E-05
CGA:   3    -0.593859214189E+03   -0.60368E-03   -0.60362E-03  1200   0.418E-03-0.183E-05
CGA:   4    -0.593859324622E+03   -0.11043E-03   -0.11043E-03  1200   0.810E-04-0.139E-06
CGA:   5    -0.593859348634E+03   -0.24013E-04   -0.24012E-04  1200   0.188E-04-0.326E-07
CGA:   6    -0.593859355271E+03   -0.66369E-05   -0.66326E-05  1200   0.598E-05 0.996E-07
CGA:   7    -0.593859357460E+03   -0.21891E-05   -0.21887E-05  1200   0.196E-05 0.105E-07
CGA:   8    -0.593859358118E+03   -0.65738E-06   -0.65647E-06  1200   0.489E-06 0.429E-07
  69 F= -.59385936E+03 E0= -.59385936E+03  d E =-.225719E-03
       N       E                     dE             d eps       ncg     rms          ort
SDA:   1    -0.593827190667E+03    0.32167E-01    0.00000E+00  1200   0.879E-01 0.000E+00
CGA:   2    -0.593853004476E+03   -0.25814E-01   -0.25814E-01  1200   0.193E-01 0.215E-04
CGA:   3    -0.593858432014E+03   -0.54275E-02   -0.54273E-02  1200   0.375E-02-0.646E-05
CGA:   4    -0.593859425138E+03   -0.99312E-03   -0.99309E-03  1200   0.732E-03-0.662E-06
CGA:   5    -0.593859641562E+03   -0.21642E-03   -0.21642E-03  1200   0.170E-03-0.149E-07
CGA:   6    -0.593859701423E+03   -0.59862E-04   -0.59847E-04  1200   0.542E-04 0.354E-06
CGA:   7    -0.593859721120E+03   -0.19697E-04   -0.19697E-04  1200   0.177E-04 0.139E-07
CGA:   8    -0.593859727114E+03   -0.59931E-05   -0.59901E-05  1200   0.449E-05 0.134E-06
CGA:   9    -0.593859728619E+03   -0.15051E-05   -0.15047E-05  1200   0.102E-05 0.334E-07
  70 F= -.59385973E+03 E0= -.59385973E+03  d E =-.596219E-03
       N       E                     dE             d eps       ncg     rms          ort
SDA:   1    -0.593856792632E+03    0.29345E-02    0.00000E+00  1200   0.801E-02 0.000E+00
CGA:   2    -0.593859146785E+03   -0.23542E-02   -0.23543E-02  1200   0.176E-02 0.593E-05
CGA:   3    -0.593859641295E+03   -0.49451E-03   -0.49445E-03  1200   0.343E-03-0.161E-05
CGA:   4    -0.593859731590E+03   -0.90295E-04   -0.90289E-04  1200   0.674E-04-0.105E-06
CGA:   5    -0.593859751322E+03   -0.19732E-04   -0.19731E-04  1200   0.157E-04-0.370E-07
CGA:   6    -0.593859756809E+03   -0.54867E-05   -0.54836E-05  1200   0.502E-05 0.960E-07
CGA:   7    -0.593859758637E+03   -0.18288E-05   -0.18284E-05  1200   0.165E-05 0.129E-07
CGA:   8    -0.593859759194E+03   -0.55655E-06   -0.55556E-06  1200   0.414E-06 0.362E-07
  71 F= -.59385976E+03 E0= -.59385976E+03  d E =-.626795E-03
       N       E                     dE             d eps       ncg     rms          ort
SDA:   1    -0.593850248477E+03    0.95102E-02    0.00000E+00  1200   0.268E-01 0.000E+00
CGA:   2    -0.593858066386E+03   -0.78179E-02   -0.78185E-02  1200   0.586E-02 0.211E-04
CGA:   3    -0.593859720916E+03   -0.16545E-02   -0.16545E-02  1200   0.112E-02-0.170E-05
CGA:   4    -0.593860017969E+03   -0.29705E-03   -0.29694E-03  1200   0.221E-03-0.230E-05
CGA:   5    -0.593860082628E+03   -0.64659E-04   -0.64650E-04  1200   0.510E-04-0.442E-06
CGA:   6    -0.593860100556E+03   -0.17928E-04   -0.17922E-04  1200   0.160E-04 0.149E-06
CGA:   7    -0.593860106439E+03   -0.58826E-05   -0.58885E-05  1200   0.533E-05-0.116E-06
CGA:   8    -0.593860108243E+03   -0.18039E-05   -0.18047E-05  1200   0.137E-05-0.299E-07
  72 F= -.59386011E+03 E0= -.59386011E+03  d E =-.349049E-03
       N       E                     dE             d eps       ncg     rms          ort
SDA:   1    -0.593825081462E+03    0.35025E-01    0.00000E+00  1200   0.960E-01 0.000E+00
CGA:   2    -0.593853064014E+03   -0.27983E-01   -0.27984E-01  1200   0.210E-01 0.409E-04
CGA:   3    -0.593858983175E+03   -0.59192E-02   -0.59190E-02  1200   0.400E-02-0.398E-05
CGA:   4    -0.593860044424E+03   -0.10612E-02   -0.10610E-02  1200   0.791E-03-0.455E-05
CGA:   5    -0.593860275972E+03   -0.23155E-03   -0.23153E-03  1200   0.183E-03-0.796E-06
CGA:   6    -0.593860340399E+03   -0.64427E-04   -0.64414E-04  1200   0.578E-04 0.337E-06
CGA:   7    -0.593860361488E+03   -0.21089E-04   -0.21100E-04  1200   0.191E-04-0.224E-06
CGA:   8    -0.593860367980E+03   -0.64917E-05   -0.64929E-05  1200   0.491E-05-0.530E-07
CGA:   9    -0.593860369585E+03   -0.16056E-05   -0.16049E-05  1200   0.109E-05 0.553E-07
  73 F= -.59386037E+03 E0= -.59386037E+03  d E =-.610391E-03
       N       E                     dE             d eps       ncg     rms          ort
SDA:   1    -0.593850375897E+03    0.99921E-02    0.00000E+00  1200   0.278E-01 0.000E+00
CGA:   2    -0.593858496574E+03   -0.81207E-02   -0.81214E-02  1200   0.627E-02 0.235E-04
CGA:   3    -0.593860262723E+03   -0.17661E-02   -0.17661E-02  1200   0.118E-02-0.492E-06
CGA:   4    -0.593860575372E+03   -0.31265E-03   -0.31254E-03  1200   0.234E-03-0.215E-05
CGA:   5    -0.593860642475E+03   -0.67103E-04   -0.67087E-04  1200   0.523E-04-0.567E-06
CGA:   6    -0.593860660621E+03   -0.18145E-04   -0.18134E-04  1200   0.159E-04 0.327E-06
CGA:   7    -0.593860666512E+03   -0.58910E-05   -0.58908E-05  1200   0.529E-05-0.206E-08
CGA:   8    -0.593860668356E+03   -0.18446E-05   -0.18447E-05  1200   0.137E-05-0.121E-07
  74 F= -.59386067E+03 E0= -.59386067E+03  d E =-.298771E-03
       N       E                     dE             d eps       ncg     rms          ort
SDA:   1    -0.593849684869E+03    0.10982E-01    0.00000E+00  1200   0.300E-01 0.000E+00
CGA:   2    -0.593858430180E+03   -0.87453E-02   -0.87460E-02  1200   0.677E-02 0.245E-04
CGA:   3    -0.593860334837E+03   -0.19047E-02   -0.19046E-02  1200   0.127E-02-0.485E-06
CGA:   4    -0.593860672176E+03   -0.33734E-03   -0.33722E-03  1200   0.250E-03-0.226E-05
CGA:   5    -0.593860744311E+03   -0.72135E-04   -0.72120E-04  1200   0.560E-04-0.594E-06
CGA:   6    -0.593860763815E+03   -0.19504E-04   -0.19492E-04  1200   0.170E-04 0.346E-06
CGA:   7    -0.593860770126E+03   -0.63111E-05   -0.63119E-05  1200   0.564E-05-0.101E-07
CGA:   8    -0.593860772089E+03   -0.19631E-05   -0.19635E-05  1200   0.146E-05-0.113E-07
  75 F= -.59386077E+03 E0= -.59386077E+03  d E =-.402504E-03
       N       E                     dE             d eps       ncg     rms          ort
SDA:   1    -0.593857114768E+03    0.36554E-02    0.00000E+00  1200   0.104E-01 0.000E+00
CGA:   2    -0.593860164367E+03   -0.30496E-02   -0.30497E-02  1200   0.238E-02 0.500E-05
CGA:   3    -0.593860836918E+03   -0.67255E-03   -0.67255E-03  1200   0.441E-03-0.161E-06
CGA:   4    -0.593860953517E+03   -0.11660E-03   -0.11658E-03  1200   0.887E-04-0.414E-06
CGA:   5    -0.593860979153E+03   -0.25635E-04   -0.25626E-04  1200   0.202E-04-0.401E-06
CGA:   6    -0.593860986225E+03   -0.70719E-05   -0.70684E-05  1200   0.622E-05 0.797E-07
CGA:   7    -0.593860988498E+03   -0.22731E-05   -0.22707E-05  1200   0.204E-05 0.609E-07
CGA:   8    -0.593860989203E+03   -0.70551E-06   -0.70442E-06  1200   0.515E-06 0.431E-07
  76 F= -.59386099E+03 E0= -.59386099E+03  d E =-.217114E-03
       N       E                     dE             d eps       ncg     rms          ort
SDA:   1    -0.593826482058E+03    0.34506E-01    0.00000E+00  1200   0.934E-01 0.000E+00
CGA:   2    -0.593853924898E+03   -0.27443E-01   -0.27443E-01  1200   0.214E-01 0.141E-04
CGA:   3    -0.593859973425E+03   -0.60485E-02   -0.60485E-02  1200   0.397E-02-0.105E-05
CGA:   4    -0.593861021074E+03   -0.10476E-02   -0.10476E-02  1200   0.803E-03-0.156E-05
CGA:   5    -0.593861251680E+03   -0.23061E-03   -0.23058E-03  1200   0.180E-03-0.115E-05
CGA:   6    -0.593861315158E+03   -0.63478E-04   -0.63468E-04  1200   0.560E-04 0.273E-06
CGA:   7    -0.593861335592E+03   -0.20434E-04   -0.20426E-04  1200   0.184E-04 0.170E-06
CGA:   8    -0.593861341979E+03   -0.63865E-05   -0.63827E-05  1200   0.470E-05 0.130E-06
CGA:   9    -0.593861343564E+03   -0.15856E-05   -0.15849E-05  1200   0.107E-05 0.334E-07
  77 F= -.59386134E+03 E0= -.59386134E+03  d E =-.571475E-03
       N       E                     dE             d eps       ncg     rms          ort
SDA:   1    -0.593858265366E+03    0.30766E-02    0.00000E+00  1200   0.899E-02 0.000E+00
CGA:   2    -0.593860905596E+03   -0.26402E-02   -0.26402E-02  1200   0.202E-02-0.637E-06
CGA:   3    -0.593861476953E+03   -0.57136E-03   -0.57134E-03  1200   0.377E-03-0.522E-06
CGA:   4    -0.593861576431E+03   -0.99478E-04   -0.99478E-04  1200   0.775E-04 0.193E-07
CGA:   5    -0.593861598779E+03   -0.22348E-04   -0.22341E-04  1200   0.179E-04-0.301E-06
CGA:   6    -0.593861605115E+03   -0.63354E-05   -0.63362E-05  1200   0.566E-05-0.200E-07
CGA:   7    -0.593861607149E+03   -0.20347E-05   -0.20332E-05  1200   0.183E-05 0.379E-07
CGA:   8    -0.593861607775E+03   -0.62509E-06   -0.62425E-06  1200   0.459E-06 0.440E-07
  78 F= -.59386161E+03 E0= -.59386161E+03  d E =-.264210E-03
       N       E                     dE             d eps       ncg     rms          ort
SDA:   1    -0.593841246168E+03    0.20361E-01    0.00000E+00  1200   0.555E-01 0.000E+00
CGA:   2    -0.593857534408E+03   -0.16288E-01   -0.16288E-01  1200   0.125E-01-0.962E-06
CGA:   3    -0.593861067171E+03   -0.35328E-02   -0.35327E-02  1200   0.233E-02-0.184E-05
CGA:   4    -0.593861683593E+03   -0.61642E-03   -0.61641E-03  1200   0.476E-03-0.103E-06
CGA:   5    -0.593861821478E+03   -0.13788E-03   -0.13787E-03  1200   0.109E-03-0.717E-06
CGA:   6    -0.593861860274E+03   -0.38796E-04   -0.38797E-04  1200   0.342E-04-0.181E-07
CGA:   7    -0.593861872673E+03   -0.12399E-04   -0.12395E-04  1200   0.111E-04 0.888E-07
CGA:   8    -0.593861876488E+03   -0.38152E-05   -0.38124E-05  1200   0.283E-05 0.114E-06
  79 F= -.59386188E+03 E0= -.59386188E+03  d E =-.532924E-03
       N       E                     dE             d eps       ncg     rms          ort
SDA:   1    -0.593856378162E+03    0.54945E-02    0.00000E+00  1200   0.154E-01 0.000E+00
CGA:   2    -0.593860885613E+03   -0.45075E-02   -0.45074E-02  1200   0.350E-02-0.563E-06
CGA:   3    -0.593861879878E+03   -0.99426E-03   -0.99426E-03  1200   0.624E-03-0.900E-07
CGA:   4    -0.593862046235E+03   -0.16636E-03   -0.16638E-03  1200   0.128E-03 0.425E-06
CGA:   5    -0.593862082794E+03   -0.36560E-04   -0.36556E-04  1200   0.293E-04-0.126E-06
CGA:   6    -0.593862093193E+03   -0.10398E-04   -0.10396E-04  1200   0.905E-05 0.436E-07
CGA:   7    -0.593862096510E+03   -0.33174E-05   -0.33125E-05  1200   0.292E-05 0.878E-07
CGA:   8    -0.593862097523E+03   -0.10125E-05   -0.10106E-05  1200   0.729E-06 0.732E-07
  80 F= -.59386210E+03 E0= -.59386210E+03  d E =-.221035E-03
       N       E                     dE             d eps       ncg     rms          ort
SDA:   1    -0.593811034911E+03    0.51062E-01    0.00000E+00  1200   0.139E+00 0.000E+00
CGA:   2    -0.593851580449E+03   -0.40546E-01   -0.40546E-01  1200   0.315E-01 0.271E-06
CGA:   3    -0.593860517725E+03   -0.89373E-02   -0.89372E-02  1200   0.562E-02-0.161E-05
CGA:   4    -0.593862013519E+03   -0.14958E-02   -0.14958E-02  1200   0.116E-02 0.849E-06
CGA:   5    -0.593862343846E+03   -0.33033E-03   -0.33032E-03  1200   0.263E-03-0.314E-06
CGA:   6    -0.593862437031E+03   -0.93185E-04   -0.93176E-04  1200   0.811E-04 0.202E-06
CGA:   7    -0.593862466783E+03   -0.29752E-04   -0.29739E-04  1200   0.263E-04 0.251E-06
CGA:   8    -0.593862475953E+03   -0.91700E-05   -0.91638E-05  1200   0.668E-05 0.221E-06
CGA:   9    -0.593862478207E+03   -0.22533E-05   -0.22529E-05  1200   0.159E-05 0.184E-07
  81 F= -.59386248E+03 E0= -.59386248E+03  d E =-.601719E-03
       N       E                     dE             d eps       ncg     rms          ort
SDA:   1    -0.593853972005E+03    0.85039E-02    0.00000E+00  1200   0.230E-01 0.000E+00
CGA:   2    -0.593860706889E+03   -0.67349E-02   -0.67349E-02  1200   0.521E-02-0.529E-06
CGA:   3    -0.593862189136E+03   -0.14822E-02   -0.14822E-02  1200   0.932E-03-0.202E-06
CGA:   4    -0.593862436577E+03   -0.24744E-03   -0.24746E-03  1200   0.194E-03 0.466E-06
CGA:   5    -0.593862491358E+03   -0.54781E-04   -0.54775E-04  1200   0.441E-04-0.169E-06
CGA:   6    -0.593862506899E+03   -0.15541E-04   -0.15539E-04  1200   0.136E-04 0.628E-07
CGA:   7    -0.593862511876E+03   -0.49766E-05   -0.49721E-05  1200   0.441E-05 0.109E-06
CGA:   8    -0.593862513411E+03   -0.15357E-05   -0.15337E-05  1200   0.111E-05 0.835E-07
  82 F= -.59386251E+03 E0= -.59386251E+03  d E =-.636924E-03
       N       E                     dE             d eps       ncg     rms          ort
SDA:   1    -0.593847428433E+03    0.15083E-01    0.00000E+00  1200   0.414E-01 0.000E+00
CGA:   2    -0.593859616807E+03   -0.12188E-01   -0.12188E-01  1200   0.964E-02 0.343E-05
CGA:   3    -0.593862344574E+03   -0.27278E-02   -0.27278E-02  1200   0.170E-02 0.916E-06
CGA:   4    -0.593862799050E+03   -0.45448E-03   -0.45447E-03  1200   0.350E-03-0.357E-07
CGA:   5    -0.593862898208E+03   -0.99159E-04   -0.99152E-04  1200   0.791E-04-0.201E-06
CGA:   6    -0.593862926120E+03   -0.27912E-04   -0.27913E-04  1200   0.241E-04-0.266E-07
CGA:   7    -0.593862935000E+03   -0.88794E-05   -0.88702E-05  1200   0.773E-05 0.174E-06
CGA:   8    -0.593862937716E+03   -0.27165E-05   -0.27130E-05  1200   0.193E-05 0.125E-06
  83 F= -.59386294E+03 E0= -.59386294E+03  d E =-.424305E-03
       N       E                     dE             d eps       ncg     rms          ort
SDA:   1    -0.593832363744E+03    0.30571E-01    0.00000E+00  1200   0.823E-01 0.000E+00
CGA:   2    -0.593856562280E+03   -0.24199E-01   -0.24199E-01  1200   0.191E-01 0.587E-05
CGA:   3    -0.593861978753E+03   -0.54165E-02   -0.54165E-02  1200   0.338E-02 0.980E-06
CGA:   4    -0.593862881169E+03   -0.90242E-03   -0.90241E-03  1200   0.695E-03-0.137E-06
CGA:   5    -0.593863078096E+03   -0.19693E-03   -0.19692E-03  1200   0.157E-03-0.286E-06
CGA:   6    -0.593863133529E+03   -0.55433E-04   -0.55433E-04  1200   0.480E-04-0.150E-07
CGA:   7    -0.593863151204E+03   -0.17675E-04   -0.17662E-04  1200   0.154E-04 0.239E-06
CGA:   8    -0.593863156627E+03   -0.54234E-05   -0.54183E-05  1200   0.386E-05 0.175E-06
CGA:   9    -0.593863157942E+03   -0.13144E-05   -0.13141E-05  1200   0.914E-06 0.125E-07
  84 F= -.59386316E+03 E0= -.59386316E+03  d E =-.644530E-03
       N       E                     dE             d eps       ncg     rms          ort
SDA:   1    -0.593846334261E+03    0.16822E-01    0.00000E+00  1200   0.452E-01 0.000E+00
CGA:   2    -0.593859817108E+03   -0.13483E-01   -0.13483E-01  1200   0.109E-01 0.149E-05
CGA:   3    -0.593862851732E+03   -0.30346E-02   -0.30347E-02  1200   0.194E-02 0.178E-05
CGA:   4    -0.593863369282E+03   -0.51755E-03   -0.51750E-03  1200   0.401E-03-0.950E-06
CGA:   5    -0.593863483124E+03   -0.11384E-03   -0.11385E-03  1200   0.924E-04 0.117E-06
CGA:   6    -0.593863515917E+03   -0.32792E-04   -0.32806E-04  1200   0.289E-04-0.321E-06
CGA:   7    -0.593863526507E+03   -0.10590E-04   -0.10588E-04  1200   0.935E-05 0.398E-07
CGA:   8    -0.593863529751E+03   -0.32441E-05   -0.32409E-05  1200   0.232E-05 0.119E-06
  85 F= -.59386353E+03 E0= -.59386353E+03  d E =-.371809E-03
       N       E                     dE             d eps       ncg     rms          ort
SDA:   1    -0.593858607785E+03    0.49187E-02    0.00000E+00  1200   0.131E-01 0.000E+00
CGA:   2    -0.593862506591E+03   -0.38988E-02   -0.38988E-02  1200   0.315E-02-0.148E-06
CGA:   3    -0.593863386167E+03   -0.87958E-03   -0.87962E-03  1200   0.562E-03 0.116E-05
CGA:   4    -0.593863536464E+03   -0.15030E-03   -0.15027E-03  1200   0.115E-03-0.459E-06
CGA:   5    -0.593863569260E+03   -0.32796E-04   -0.32797E-04  1200   0.266E-04 0.465E-07
CGA:   6    -0.593863578797E+03   -0.95377E-05   -0.95454E-05  1200   0.842E-05-0.180E-06
CGA:   7    -0.593863581865E+03   -0.30672E-05   -0.30655E-05  1200   0.270E-05 0.324E-07
CGA:   8    -0.593863582794E+03   -0.92973E-06   -0.92868E-06  1200   0.660E-06 0.605E-07
  86 F= -.59386358E+03 E0= -.59386358E+03  d E =-.424853E-03
       N       E                     dE             d eps       ncg     rms          ort
SDA:   1    -0.593855690781E+03    0.78911E-02    0.00000E+00  1200   0.213E-01 0.000E+00
CGA:   2    -0.593862102391E+03   -0.64116E-02   -0.64115E-02  1200   0.524E-02-0.793E-05
CGA:   3    -0.593863546661E+03   -0.14443E-02   -0.14443E-02  1200   0.917E-03 0.188E-05
CGA:   4    -0.593863791301E+03   -0.24464E-03   -0.24470E-03  1200   0.184E-03 0.111E-05
CGA:   5    -0.593863843190E+03   -0.51889E-04   -0.51927E-04  1200   0.420E-04 0.108E-05
CGA:   6    -0.593863858192E+03   -0.15002E-04   -0.15009E-04  1200   0.130E-04-0.167E-06
CGA:   7    -0.593863862939E+03   -0.47469E-05   -0.47409E-05  1200   0.418E-05 0.114E-06
[...]
SDA:   1    -0.593898637132E+03    0.75064E-03    0.00000E+00  1200   0.187E-02 0.000E+00
CGA:   2    -0.593899255552E+03   -0.61842E-03   -0.61844E-03  1200   0.481E-03-0.266E-05
CGA:   3    -0.593899381191E+03   -0.12564E-03   -0.12570E-03  1200   0.890E-04 0.105E-05
CGA:   4    -0.593899403708E+03   -0.22517E-04   -0.22527E-04  1200   0.167E-04 0.152E-06
CGA:   5    -0.593899408660E+03   -0.49513E-05   -0.49524E-05  1200   0.381E-05 0.649E-07
CGA:   6    -0.593899409973E+03   -0.13129E-05   -0.13123E-05  1200   0.120E-05 0.259E-07
CGA:   7    -0.593899410405E+03   -0.43277E-06   -0.43103E-06  1200   0.357E-06 0.463E-07
CGA:   8    -0.593899410540E+03   -0.13429E-06   -0.13399E-06  1200   0.909E-07 0.149E-07
 400 F= -.59389941E+03 E0= -.59389941E+03  d E =-.227139E-04
       N       E                     dE             d eps       ncg     rms          ort
SDA:   1    -0.593898171552E+03    0.12389E-02    0.00000E+00  1200   0.302E-02 0.000E+00
CGA:   2    -0.593899170467E+03   -0.99892E-03   -0.99894E-03  1200   0.776E-03-0.333E-05
CGA:   3    -0.593899373566E+03   -0.20310E-03   -0.20318E-03  1200   0.144E-03 0.132E-05
CGA:   4    -0.593899409941E+03   -0.36375E-04   -0.36387E-04  1200   0.269E-04 0.185E-06
CGA:   5    -0.593899417938E+03   -0.79968E-05   -0.79987E-05  1200   0.616E-05 0.793E-07
CGA:   6    -0.593899420061E+03   -0.21237E-05   -0.21229E-05  1200   0.195E-05 0.324E-07
CGA:   7    -0.593899420766E+03   -0.70445E-06   -0.70263E-06  1200   0.585E-06 0.580E-07
CGA:   8    -0.593899420984E+03   -0.21871E-06   -0.21751E-06  1200   0.148E-06 0.210E-07
 401 F= -.59389942E+03 E0= -.59389942E+03  d E =-.331587E-04
       N       E                     dE             d eps       ncg     rms          ort
SDA:   1    -0.593898753924E+03    0.66684E-03    0.00000E+00  1200   0.167E-02 0.000E+00
CGA:   2    -0.593899306152E+03   -0.55223E-03   -0.55226E-03  1200   0.423E-03-0.513E-05
CGA:   3    -0.593899416779E+03   -0.11063E-03   -0.11067E-03  1200   0.768E-04 0.759E-06
CGA:   4    -0.593899436003E+03   -0.19224E-04   -0.19266E-04  1200   0.141E-04 0.596E-06
CGA:   5    -0.593899440169E+03   -0.41658E-05   -0.41671E-05  1200   0.319E-05 0.580E-07
CGA:   6    -0.593899441260E+03   -0.10916E-05   -0.10911E-05  1200   0.981E-06 0.281E-08
CGA:   7    -0.593899441599E+03   -0.33860E-06   -0.33705E-06  1200   0.277E-06 0.674E-07
CGA:   8    -0.593899441702E+03   -0.10368E-06   -0.10255E-06  1200   0.707E-07 0.283E-07
 402 F= -.59389944E+03 E0= -.59389944E+03  d E =-.207180E-04
       N       E                     dE             d eps       ncg     rms          ort
SDA:   1    -0.593898839191E+03    0.60241E-03    0.00000E+00  1200   0.148E-02 0.000E+00
CGA:   2    -0.593899328174E+03   -0.48898E-03   -0.48902E-03  1200   0.374E-03-0.482E-05
CGA:   3    -0.593899426154E+03   -0.97979E-04   -0.98024E-04  1200   0.680E-04 0.716E-06
CGA:   4    -0.593899443178E+03   -0.17024E-04   -0.17064E-04  1200   0.125E-04 0.557E-06
CGA:   5    -0.593899446868E+03   -0.36902E-05   -0.36914E-05  1200   0.282E-05 0.560E-07
CGA:   6    -0.593899447834E+03   -0.96536E-06   -0.96536E-06  1200   0.867E-06 0.293E-08
CGA:   7    -0.593899448132E+03   -0.29848E-06   -0.29757E-06  1200   0.244E-06 0.609E-07
CGA:   8    -0.593899448223E+03   -0.91045E-07   -0.90289E-07  1200   0.623E-07 0.259E-07
 403 F= -.59389945E+03 E0= -.59389945E+03  d E =-.272388E-04
       N       E                     dE             d eps       ncg     rms          ort
SDA:   1    -0.593898628054E+03    0.82008E-03    0.00000E+00  1200   0.205E-02 0.000E+00
CGA:   2    -0.593899310103E+03   -0.68205E-03   -0.68212E-03  1200   0.513E-03-0.804E-05
CGA:   3    -0.593899443652E+03   -0.13355E-03   -0.13362E-03  1200   0.933E-04 0.105E-05
CGA:   4    -0.593899466852E+03   -0.23200E-04   -0.23272E-04  1200   0.170E-04 0.987E-06
CGA:   5    -0.593899471908E+03   -0.50551E-05   -0.50562E-05  1200   0.388E-05 0.549E-07
CGA:   6    -0.593899473238E+03   -0.13307E-05   -0.13309E-05  1200   0.121E-05-0.177E-07
CGA:   7    -0.593899473646E+03   -0.40768E-06   -0.40573E-06  1200   0.333E-06 0.101E-06
CGA:   8    -0.593899473766E+03   -0.12026E-06   -0.11919E-06  1200   0.833E-07 0.514E-07
 404 F= -.59389947E+03 E0= -.59389947E+03  d E =-.255430E-04
       N       E                     dE             d eps       ncg     rms          ort
SDA:   1    -0.593896504941E+03    0.29687E-02    0.00000E+00  1200   0.724E-02 0.000E+00
CGA:   2    -0.593898912244E+03   -0.24073E-02   -0.24074E-02  1200   0.181E-02-0.149E-04
CGA:   3    -0.593899384980E+03   -0.47274E-03   -0.47286E-03  1200   0.331E-03 0.194E-05
CGA:   4    -0.593899467527E+03   -0.82547E-04   -0.82679E-04  1200   0.607E-04 0.184E-05
CGA:   5    -0.593899485451E+03   -0.17924E-04   -0.17927E-04  1200   0.137E-04 0.102E-06
CGA:   6    -0.593899490140E+03   -0.46891E-05   -0.46901E-05  1200   0.426E-05-0.347E-07
CGA:   7    -0.593899491635E+03   -0.14952E-05   -0.14886E-05  1200   0.123E-05 0.200E-06
CGA:   8    -0.593899492087E+03   -0.45188E-06   -0.44902E-06  1200   0.307E-06 0.980E-07
 405 F= -.59389949E+03 E0= -.59389949E+03  d E =-.438639E-04
       N       E                     dE             d eps       ncg     rms          ort
SDA:   1    -0.593897958560E+03    0.15331E-02    0.00000E+00  1200   0.374E-02 0.000E+00
CGA:   2    -0.593899207703E+03   -0.12491E-02   -0.12492E-02  1200   0.961E-03-0.257E-05
CGA:   3    -0.593899457690E+03   -0.24999E-03   -0.25004E-03  1200   0.173E-03 0.853E-06
CGA:   4    -0.593899501455E+03   -0.43765E-04   -0.43789E-04  1200   0.314E-04 0.356E-06
CGA:   5    -0.593899510758E+03   -0.93030E-05   -0.93039E-05  1200   0.713E-05 0.447E-07
CGA:   6    -0.593899513177E+03   -0.24190E-05   -0.24179E-05  1200   0.221E-05 0.488E-07
CGA:   7    -0.593899513974E+03   -0.79719E-06   -0.79384E-06  1200   0.667E-06 0.949E-07
CGA:   8    -0.593899514227E+03   -0.25263E-06   -0.25095E-06  1200   0.173E-06 0.305E-07
 406 F= -.59389951E+03 E0= -.59389951E+03  d E =-.221398E-04
       N       E                     dE             d eps       ncg     rms          ort
SDA:   1    -0.593899453881E+03    0.60093E-04    0.00000E+00  1200   0.146E-03 0.000E+00
CGA:   2    -0.593899502893E+03   -0.49012E-04   -0.49018E-04  1200   0.379E-04-0.538E-06
CGA:   3    -0.593899512646E+03   -0.97525E-05   -0.97641E-05  1200   0.667E-05 0.172E-06
CGA:   4    -0.593899514343E+03   -0.16973E-05   -0.17021E-05  1200   0.118E-05 0.743E-07
CGA:   5    -0.593899514701E+03   -0.35823E-06   -0.35852E-06  1200   0.280E-06 0.792E-08
CGA:   6    -0.593899514795E+03   -0.93981E-07   -0.93868E-07  1200   0.852E-07 0.964E-08
CGA:   7    -0.593899514822E+03   -0.27354E-07   -0.27369E-07  1200   0.233E-07 0.164E-07
CGA:   8    -0.593899514831E+03   -0.85884E-08   -0.85217E-08  1200   0.676E-08 0.691E-08
 407 F= -.59389951E+03 E0= -.59389951E+03  d E =-.227439E-04
       N       E                     dE             d eps       ncg     rms          ort
SDA:   1    -0.593898488891E+03    0.10259E-02    0.00000E+00  1200   0.254E-02 0.000E+00
CGA:   2    -0.593899331879E+03   -0.84299E-03   -0.84296E-03  1200   0.659E-03 0.221E-05
CGA:   3    -0.593899502336E+03   -0.17046E-03   -0.17046E-03  1200   0.120E-03 0.554E-07
CGA:   4    -0.593899533046E+03   -0.30710E-04   -0.30685E-04  1200   0.217E-04-0.395E-06
CGA:   5    -0.593899539439E+03   -0.63927E-05   -0.63918E-05  1200   0.491E-05-0.319E-07
CGA:   6    -0.593899541069E+03   -0.16307E-05   -0.16298E-05  1200   0.148E-05 0.548E-07
CGA:   7    -0.593899541616E+03   -0.54638E-06   -0.54581E-06  1200   0.462E-06 0.205E-07
CGA:   8    -0.593899541792E+03   -0.17604E-06   -0.17704E-06  1200   0.132E-06-0.134E-07
 408 F= -.59389954E+03 E0= -.59389954E+03  d E =-.269607E-04
       N       E                     dE             d eps       ncg     rms          ort
SDA:   1    -0.593896539194E+03    0.30024E-02    0.00000E+00  1200   0.728E-02 0.000E+00
CGA:   2    -0.593898957659E+03   -0.24185E-02   -0.24184E-02  1200   0.189E-02 0.384E-05
CGA:   3    -0.593899446513E+03   -0.48885E-03   -0.48886E-03  1200   0.343E-03 0.826E-07
CGA:   4    -0.593899534369E+03   -0.87856E-04   -0.87814E-04  1200   0.619E-04-0.675E-06
CGA:   5    -0.593899552648E+03   -0.18279E-04   -0.18277E-04  1200   0.141E-04-0.548E-07
CGA:   6    -0.593899557344E+03   -0.46963E-05   -0.46946E-05  1200   0.430E-05 0.952E-07
CGA:   7    -0.593899558922E+03   -0.15776E-05   -0.15760E-05  1200   0.134E-05 0.368E-07
CGA:   8    -0.593899559423E+03   -0.50151E-06   -0.50280E-06  1200   0.371E-06-0.211E-07
 409 F= -.59389956E+03 E0= -.59389956E+03  d E =-.445923E-04
       N       E                     dE             d eps       ncg     rms          ort
SDA:   1    -0.593897833182E+03    0.17257E-02    0.00000E+00  1200   0.422E-02 0.000E+00
CGA:   2    -0.593899239031E+03   -0.14058E-02   -0.14058E-02  1200   0.107E-02 0.553E-06
CGA:   3    -0.593899517819E+03   -0.27879E-03   -0.27879E-03  1200   0.193E-03-0.200E-07
CGA:   4    -0.593899567216E+03   -0.49397E-04   -0.49374E-04  1200   0.351E-04-0.376E-06
CGA:   5    -0.593899577575E+03   -0.10359E-04   -0.10357E-04  1200   0.809E-05-0.753E-07
CGA:   6    -0.593899580289E+03   -0.27145E-05   -0.27142E-05  1200   0.253E-05-0.757E-08
CGA:   7    -0.593899581198E+03   -0.90817E-06   -0.90717E-06  1200   0.797E-06 0.148E-07
CGA:   8    -0.593899581489E+03   -0.29141E-06   -0.29263E-06  1200   0.218E-06-0.146E-07
 410 F= -.59389958E+03 E0= -.59389958E+03  d E =-.220656E-04
       N       E                     dE             d eps       ncg     rms          ort
SDA:   1    -0.593899579776E+03    0.14214E-05    0.00000E+00  1200   0.449E-05 0.000E+00
CGA:   2    -0.593899581240E+03   -0.14640E-05   -0.14636E-05  1200   0.118E-05 0.149E-07
CGA:   3    -0.593899581544E+03   -0.30438E-06   -0.30443E-06  1200   0.210E-06-0.774E-09
CGA:   4    -0.593899581603E+03   -0.58793E-07   -0.58214E-07  1200   0.371E-07-0.108E-07
CGA:   5    -0.593899581615E+03   -0.11573E-07   -0.12139E-07  1200   0.126E-07-0.407E-08
CGA:   6    -0.593899581618E+03   -0.35807E-08   -0.33881E-08  1200   0.336E-08 0.666E-09
CGA:   7    -0.593899581619E+03   -0.83492E-09   -0.87808E-09  1200   0.990E-09 0.112E-08
CGA:   8    -0.593899581620E+03   -0.28376E-09   -0.88042E-09  1200   0.190E-08-0.100E-08
 411 F= -.59389958E+03 E0= -.59389958E+03  d E =-.221962E-04
       N       E                     dE             d eps       ncg     rms          ort
SDA:   1    -0.593898625806E+03    0.95581E-03    0.00000E+00  1200   0.235E-02 0.000E+00
CGA:   2    -0.593899416152E+03   -0.79035E-03   -0.79035E-03  1200   0.602E-03-0.147E-05
CGA:   3    -0.593899571498E+03   -0.15535E-03   -0.15537E-03  1200   0.108E-03 0.136E-06
CGA:   4    -0.593899598674E+03   -0.27177E-04   -0.27203E-04  1200   0.195E-04 0.319E-06
CGA:   5    -0.593899604402E+03   -0.57281E-05   -0.57283E-05  1200   0.442E-05 0.488E-09
CGA:   6    -0.593899605878E+03   -0.14754E-05   -0.14756E-05  1200   0.136E-05 0.579E-08
CGA:   7    -0.593899606354E+03   -0.47653E-06   -0.47477E-06  1200   0.407E-06 0.590E-07
CGA:   8    -0.593899606506E+03   -0.15201E-06   -0.15140E-06  1200   0.109E-06 0.175E-07
 412 F= -.59389961E+03 E0= -.59389961E+03  d E =-.248868E-04
       N       E                     dE             d eps       ncg     rms          ort
SDA:   1    -0.593896052238E+03    0.35541E-02    0.00000E+00  1200   0.858E-02 0.000E+00
CGA:   2    -0.593898930303E+03   -0.28781E-02   -0.28781E-02  1200   0.219E-02-0.258E-05
CGA:   3    -0.593899496542E+03   -0.56624E-03   -0.56629E-03  1200   0.393E-03 0.239E-06
CGA:   4    -0.593899595825E+03   -0.99283E-04   -0.99332E-04  1200   0.711E-04 0.605E-06
CGA:   5    -0.593899616652E+03   -0.20827E-04   -0.20828E-04  1200   0.161E-04-0.569E-10
CGA:   6    -0.593899622037E+03   -0.53850E-05   -0.53850E-05  1200   0.497E-05 0.164E-07
CGA:   7    -0.593899623814E+03   -0.17769E-05   -0.17726E-05  1200   0.154E-05 0.115E-06
CGA:   8    -0.593899624380E+03   -0.56540E-06   -0.56447E-06  1200   0.409E-06 0.331E-07
 413 F= -.59389962E+03 E0= -.59389962E+03  d E =-.427601E-04
       N       E                     dE             d eps       ncg     rms          ort
SDA:   1    -0.593899041635E+03    0.58218E-03    0.00000E+00  1200   0.143E-02 0.000E+00
CGA:   2    -0.593899524194E+03   -0.48256E-03   -0.48255E-03  1200   0.376E-03 0.269E-06
CGA:   3    -0.593899620563E+03   -0.96369E-04   -0.96357E-04  1200   0.665E-04-0.216E-06
CGA:   4    -0.593899637421E+03   -0.16858E-04   -0.16873E-04  1200   0.116E-04 0.198E-06
CGA:   5    -0.593899640828E+03   -0.34073E-05   -0.34076E-05  1200   0.261E-05 0.980E-08
CGA:   6    -0.593899641683E+03   -0.85426E-06   -0.85407E-06  1200   0.778E-06 0.285E-07
CGA:   7    -0.593899641957E+03   -0.27402E-06   -0.27287E-06  1200   0.236E-06 0.415E-07
CGA:   8    -0.593899642046E+03   -0.89657E-07   -0.89019E-07  1200   0.656E-07 0.125E-07
 414 F= -.59389964E+03 E0= -.59389964E+03  d E =-.176667E-04
       N       E                     dE             d eps       ncg     rms          ort
SDA:   1    -0.593898781306E+03    0.86065E-03    0.00000E+00  1200   0.207E-02 0.000E+00
CGA:   2    -0.593899478938E+03   -0.69763E-03   -0.69762E-03  1200   0.543E-03 0.333E-06
CGA:   3    -0.593899618022E+03   -0.13908E-03   -0.13907E-03  1200   0.962E-04-0.253E-06
CGA:   4    -0.593899642358E+03   -0.24335E-04   -0.24352E-04  1200   0.169E-04 0.239E-06
CGA:   5    -0.593899647307E+03   -0.49491E-05   -0.49496E-05  1200   0.375E-05 0.133E-07
CGA:   6    -0.593899648537E+03   -0.12297E-05   -0.12296E-05  1200   0.112E-05 0.326E-07
CGA:   7    -0.593899648931E+03   -0.39449E-06   -0.39293E-06  1200   0.339E-06 0.500E-07
CGA:   8    -0.593899649059E+03   -0.12831E-06   -0.12781E-06  1200   0.944E-07 0.141E-07
 415 F= -.59389965E+03 E0= -.59389965E+03  d E =-.246797E-04
       N       E                     dE             d eps       ncg     rms          ort
SDA:   1    -0.593899333471E+03    0.31546E-03    0.00000E+00  1200   0.789E-03 0.000E+00
CGA:   2    -0.593899597904E+03   -0.26443E-03   -0.26441E-03  1200   0.212E-03 0.189E-05
CGA:   3    -0.593899652068E+03   -0.54164E-04   -0.54141E-04  1200   0.379E-04-0.347E-06
CGA:   4    -0.593899661922E+03   -0.98538E-05   -0.98398E-05  1200   0.683E-05-0.231E-06
CGA:   5    -0.593899663930E+03   -0.20076E-05   -0.20084E-05  1200   0.158E-05 0.233E-07
CGA:   6    -0.593899664461E+03   -0.53180E-06   -0.53161E-06  1200   0.498E-06 0.926E-08
CGA:   7    -0.593899664642E+03   -0.18105E-06   -0.18124E-06  1200   0.161E-06 0.134E-08
CGA:   8    -0.593899664701E+03   -0.58411E-07   -0.58720E-07  1200   0.447E-07-0.398E-08
 416 F= -.59389966E+03 E0= -.59389966E+03  d E =-.156415E-04
       N       E                     dE             d eps       ncg     rms          ort
SDA:   1    -0.593897674406E+03    0.19902E-02    0.00000E+00  1200   0.477E-02 0.000E+00
CGA:   2    -0.593899276875E+03   -0.16025E-02   -0.16024E-02  1200   0.128E-02 0.473E-05
CGA:   3    -0.593899603851E+03   -0.32698E-03   -0.32692E-03  1200   0.229E-03-0.856E-06
CGA:   4    -0.593899663130E+03   -0.59280E-04   -0.59245E-04  1200   0.413E-04-0.573E-06
CGA:   5    -0.593899675336E+03   -0.12206E-04   -0.12207E-04  1200   0.957E-05 0.556E-07
CGA:   6    -0.593899678545E+03   -0.32088E-05   -0.32084E-05  1200   0.301E-05 0.269E-07
CGA:   7    -0.593899679634E+03   -0.10884E-05   -0.10880E-05  1200   0.963E-06 0.669E-08
CGA:   8    -0.593899679980E+03   -0.34653E-06   -0.34650E-06  1200   0.259E-06-0.763E-08
 417 F= -.59389968E+03 E0= -.59389968E+03  d E =-.309208E-04
       N       E                     dE             d eps       ncg     rms          ort
SDA:   1    -0.593899097172E+03    0.58246E-03    0.00000E+00  1200   0.142E-02 0.000E+00
CGA:   2    -0.593899577738E+03   -0.48057E-03   -0.48051E-03  1200   0.380E-03 0.365E-05
CGA:   3    -0.593899675047E+03   -0.97309E-04   -0.97269E-04  1200   0.665E-04-0.578E-06
CGA:   4    -0.593899692385E+03   -0.17339E-04   -0.17303E-04  1200   0.120E-04-0.594E-06
CGA:   5    -0.593899695873E+03   -0.34882E-05   -0.34896E-05  1200   0.272E-05 0.588E-07
CGA:   6    -0.593899696796E+03   -0.92229E-06   -0.92234E-06  1200   0.870E-06 0.135E-08
CGA:   7    -0.593899697119E+03   -0.32288E-06   -0.32426E-06  1200   0.302E-06-0.298E-07
CGA:   8    -0.593899697221E+03   -0.10279E-06   -0.10300E-06  1200   0.791E-07-0.719E-08
 418 F= -.59389970E+03 E0= -.59389970E+03  d E =-.172411E-04
       N       E                     dE             d eps       ncg     rms          ort
SDA:   1    -0.593899141315E+03    0.55580E-03    0.00000E+00  1200   0.133E-02 0.000E+00
CGA:   2    -0.593899591187E+03   -0.44987E-03   -0.44982E-03  1200   0.356E-03 0.353E-05
CGA:   3    -0.593899682265E+03   -0.91077E-04   -0.91039E-04  1200   0.623E-04-0.556E-06
CGA:   4    -0.593899698499E+03   -0.16235E-04   -0.16200E-04  1200   0.113E-04-0.574E-06
CGA:   5    -0.593899701769E+03   -0.32701E-05   -0.32718E-05  1200   0.255E-05 0.561E-07
CGA:   6    -0.593899702630E+03   -0.86024E-06   -0.85988E-06  1200   0.810E-06 0.358E-08
CGA:   7    -0.593899702930E+03   -0.30076E-06   -0.30256E-06  1200   0.282E-06-0.290E-07
CGA:   8    -0.593899703027E+03   -0.96366E-07   -0.96781E-07  1200   0.748E-07-0.920E-08
 419 F= -.59389970E+03 E0= -.59389970E+03  d E =-.230466E-04
       N       E                     dE             d eps       ncg     rms          ort
SDA:   1    -0.593899303400E+03    0.39953E-03    0.00000E+00  1200   0.982E-03 0.000E+00
CGA:   2    -0.593899637054E+03   -0.33365E-03   -0.33360E-03  1200   0.261E-03 0.314E-05
CGA:   3    -0.593899704087E+03   -0.67033E-04   -0.66985E-04  1200   0.458E-04-0.716E-06
CGA:   4    -0.593899715923E+03   -0.11837E-04   -0.11818E-04  1200   0.820E-05-0.303E-06
CGA:   5    -0.593899718285E+03   -0.23614E-05   -0.23631E-05  1200   0.182E-05 0.602E-07
CGA:   6    -0.593899718892E+03   -0.60767E-06   -0.60745E-06  1200   0.563E-06 0.210E-07
CGA:   7    -0.593899719103E+03   -0.21063E-06   -0.21128E-06  1200   0.195E-06-0.116E-07
CGA:   8    -0.593899719171E+03   -0.67562E-07   -0.67859E-07  1200   0.518E-07-0.303E-08
 420 F= -.59389972E+03 E0= -.59389972E+03  d E =-.161438E-04
       N       E                     dE             d eps       ncg     rms          ort
SDA:   1    -0.593897029050E+03    0.26901E-02    0.00000E+00  1200   0.639E-02 0.000E+00
CGA:   2    -0.593899203147E+03   -0.21741E-02   -0.21739E-02  1200   0.171E-02 0.815E-05
CGA:   3    -0.593899638211E+03   -0.43506E-03   -0.43494E-03  1200   0.298E-03-0.184E-05
CGA:   4    -0.593899714858E+03   -0.76647E-04   -0.76597E-04  1200   0.532E-04-0.794E-06
CGA:   5    -0.593899730342E+03   -0.15484E-04   -0.15488E-04  1200   0.119E-04 0.157E-06
CGA:   6    -0.593899734320E+03   -0.39778E-05   -0.39767E-05  1200   0.370E-05 0.542E-07
CGA:   7    -0.593899735672E+03   -0.13521E-05   -0.13534E-05  1200   0.123E-05-0.268E-07
CGA:   8    -0.593899736106E+03   -0.43442E-06   -0.43474E-06  1200   0.327E-06-0.548E-08
 421 F= -.59389974E+03 E0= -.59389974E+03  d E =-.330793E-04
       N       E                     dE             d eps       ncg     rms          ort
SDA:   1    -0.593899046675E+03    0.68900E-03    0.00000E+00  1200   0.168E-02 0.000E+00
CGA:   2    -0.593899614168E+03   -0.56749E-03   -0.56746E-03  1200   0.447E-03 0.194E-05
CGA:   3    -0.593899728683E+03   -0.11451E-03   -0.11446E-03  1200   0.773E-04-0.854E-06
CGA:   4    -0.593899748611E+03   -0.19928E-04   -0.19931E-04  1200   0.137E-04 0.462E-07
CGA:   5    -0.593899752621E+03   -0.40097E-05   -0.40125E-05  1200   0.312E-05 0.116E-06
CGA:   6    -0.593899753684E+03   -0.10636E-05   -0.10634E-05  1200   0.993E-06 0.832E-08
CGA:   7    -0.593899754040E+03   -0.35541E-06   -0.35473E-06  1200   0.322E-06 0.177E-07
CGA:   8    -0.593899754151E+03   -0.11166E-06   -0.11154E-06  1200   0.812E-07 0.153E-07
 422 F= -.59389975E+03 E0= -.59389975E+03  d E =-.180454E-04
