
Lmod is automatically replacing "cce/11.0.4" with "gcc/10.2.0".


Lmod is automatically replacing "PrgEnv-cray/8.0.0" with "PrgEnv-gnu/8.0.0".


Lmod is automatically replacing "craype-network-ofi" with "craype-network-ucx".


Inactive Modules:
  1) cray-mpich


Lmod is automatically replacing "craype-network-ucx" with "craype-network-ofi".


Inactive Modules:
  1) cray-mpich-ucx/8.1.9

Activating Modules:
  1) cray-mpich/8.1.4

 ----------------------------------------------------
    OOO  PPPP  EEEEE N   N M   M PPPP
   O   O P   P E     NN  N MM MM P   P
   O   O PPPP  EEEEE N N N M M M PPPP   -- VERSION
   O   O P     E     N  NN M   M P
    OOO  P     EEEEE N   N M   M P
 ----------------------------------------------------
 running   64 mpi-ranks, with    1 threads/rank
 distrk:  each k-point on   32 cores,    2 groups
 distr:  one band on    4 cores,    8 groups
 vasp.6.3.1 04May22 (build May 25 2022 13:42:54) complex                         
 POSCAR found type information on POSCAR C H I N Sn
 POSCAR found :  5 types and      48 ions
 scaLAPACK will be used
 -----------------------------------------------------------------------------
|                                                                             |
|               ----> ADVICE to this user running VASP <----                  |
|                                                                             |
|     You have a (more or less) 'large supercell' and for larger cells it     |
|     might be more efficient to use real-space projection operators.         |
|     Therefore, try LREAL= Auto in the INCAR file.                           |
|     Mind: For very accurate calculation, you might also keep the            |
|     reciprocal projection scheme (i.e. LREAL=.FALSE.).                      |
|                                                                             |
 -----------------------------------------------------------------------------

 WARNING: PSMAXN for non-local potential too small
 LDA part: xc-table for Pade appr. of Perdew
 POSCAR, INCAR and KPOINTS ok, starting setup
 FFT: planning ... GRIDC
 FFT: planning ... GRID_SOFT
 FFT: planning ... GRID
 WAVECAR not read
 entering main loop
       N       E                     dE             d eps       ncg     rms          ort
DAV:   1     0.832042438228E+03    0.83204E+03   -0.89326E+04  1200   0.161E+03
DAV:   2    -0.464115568703E+03   -0.12962E+04   -0.12413E+04  1200   0.253E+02
DAV:   3    -0.638897365471E+03   -0.17478E+03   -0.17343E+03  1200   0.104E+02
DAV:   4    -0.644047288033E+03   -0.51499E+01   -0.51194E+01  1200   0.200E+01
DAV:   5    -0.644203559594E+03   -0.15627E+00   -0.15618E+00  1200   0.326E+00
 gam= 0.000 g(H,U,f)=  0.560E+02 0.698E+01 0.828E-15 ort(H,U,f) = 0.000E+00 0.000E+00 0.000E+00
SDA:   6    -0.581321303461E+03    0.62882E+02   -0.15618E+00  1200   0.629E+02 0.000E+00
 gam= 0.000 trial= 0.400  step= 0.331 mean= 0.400
 gam= 0.073 g(H,U,f)=  0.379E+01 0.829E+00 0.318E-15 ort(H,U,f) =-0.240E+01 0.239E+01 0.366E-15
CGA:   7    -0.591768763994E+03   -0.10447E+02   -0.10416E+02  1200   0.461E+01-0.299E-02
 gam= 0.073 trial= 0.397  step= 0.590 mean= 0.397
 gam= 0.312 g(H,U,f)=  0.119E+01 0.256E+00 0.584E-17 ort(H,U,f) =-0.477E+00 0.501E+00 0.808E-17
CGA:   8    -0.593132819387E+03   -0.13641E+01   -0.13603E+01  1200   0.144E+01 0.237E-01
 gam= 0.312 trial= 0.406  step= 0.592 mean= 0.406
 gam= 0.290 g(H,U,f)=  0.344E+00 0.743E-01 0.133E-17 ort(H,U,f) =-0.215E+00 0.216E+00 0.279E-17
CGA:   9    -0.593561868845E+03   -0.42905E+00   -0.42904E+00  1200   0.418E+00 0.107E-02
 gam= 0.290 trial= 0.416  step= 0.608 mean= 0.416
 gam= 0.275 g(H,U,f)=  0.985E-01 0.165E-01 0.823E-15 ort(H,U,f) =-0.627E-01 0.624E-01 0.177E-14
CGA:  10    -0.593688959019E+03   -0.12709E+00   -0.12711E+00  1200   0.115E+00-0.247E-03
 gam= 0.275 trial= 0.425  step= 0.711 mean= 0.425
 gam= 0.295 g(H,U,f)=  0.306E-01 0.342E-02 0.127E-12 ort(H,U,f) =-0.133E-01 0.131E-01 0.338E-12
CGA:  11    -0.593729817007E+03   -0.40858E-01   -0.40874E-01  1200   0.340E-01-0.160E-03
 gam= 0.295 trial= 0.439  step= 0.647 mean= 0.439
 gam= 0.223 g(H,U,f)=  0.705E-02 0.521E-03 0.711E-17 ort(H,U,f) =-0.253E-02 0.258E-02 0.269E-16
CGA:  12    -0.593740801856E+03   -0.10985E-01   -0.10981E-01  1200   0.757E-02 0.462E-04
 gam= 0.223 trial= 0.450  step= 0.719 mean= 0.450
 gam= 0.248 g(H,U,f)=  0.179E-02 0.836E-04 0.701E-20 ort(H,U,f) =-0.377E-03 0.335E-03 0.359E-19
CGA:  13    -0.593743522138E+03   -0.27203E-02   -0.27262E-02  1200   0.188E-02-0.426E-04
 gam= 0.248 trial= 0.463  step= 0.725 mean= 0.463
 gam= 0.213 g(H,U,f)=  0.370E-03 0.293E-04 0.134E-16 ort(H,U,f) =-0.643E-04 0.658E-04 0.519E-16
CGA:  14    -0.593744199571E+03   -0.67743E-03   -0.67727E-03  1200   0.399E-03 0.148E-05
 gam= 0.213 trial= 0.476  step= 0.729 mean= 0.476
 gam= 0.213 g(H,U,f)=  0.806E-04 0.424E-05 0.138E-19 ort(H,U,f) = 0.855E-05 0.987E-05 0.705E-19
CGA:  15    -0.593744347476E+03   -0.14790E-03   -0.14558E-03  1200   0.849E-04 0.184E-04
 gam= 0.213 trial= 0.489  step= 0.826 mean= 0.489
 gam= 0.257 g(H,U,f)=  0.205E-04 0.123E-05 0.260E-19 ort(H,U,f) =-0.325E-07 0.269E-05 0.238E-19
CGA:  16    -0.593744384595E+03   -0.37119E-04   -0.36668E-04  1200   0.218E-04 0.266E-05
 gam= 0.257 trial= 0.506  step= 0.929 mean= 0.506
 gam= 0.276 g(H,U,f)=  0.581E-05 0.200E-06 0.355E-21 ort(H,U,f) =-0.198E-05 0.355E-06 0.735E-21
CGA:  17    -0.593744394686E+03   -0.10090E-04   -0.10433E-04  1200   0.601E-05-0.163E-05
 gam= 0.276 trial= 0.527  step= 0.760 mean= 0.527
 gam= 0.231 g(H,U,f)=  0.129E-05 0.990E-07 0.639E-17 ort(H,U,f) = 0.618E-06 0.927E-07-0.121E-16
CGA:  18    -0.593744396881E+03   -0.21950E-05   -0.21117E-05  1200   0.139E-05 0.711E-06
 gam= 0.231 trial= 0.539  step= 0.671 mean= 0.539
 final diagonalization
   1 F= -.59374440E+03 E0= -.59374440E+03  d E =-.593744E+03
 curvature:   0.00 expect dE= 0.000E+00 dE for cont linesearch  0.000E+00
 trial: gam= 0.00000 g(F)=  0.117E-01 g(S)=  0.776E-02 ort = 0.000E+00 (trialstep = 0.100E+01)
 search vector abs. value=  0.195E-01
 bond charge predicted
 wavefunctions rotated
       N       E                     dE             d eps       ncg     rms          ort
 gam= 0.000 g(H,U,f)=  0.283E+00 0.154E-01 0.873E-19 ort(H,U,f) = 0.000E+00 0.000E+00 0.000E+00
SDA:   1    -0.593678047289E+03    0.66347E-01    0.00000E+00  1200   0.298E+00 0.000E+00
 gam= 0.000 trial= 0.545  step= 0.441 mean= 0.545
 gam= 0.133 g(H,U,f)=  0.373E-01 0.242E-02 0.326E-17 ort(H,U,f) = 0.473E-02-0.428E-02 0.121E-17
CGA:   2    -0.593743800587E+03   -0.65753E-01   -0.65769E-01  1200   0.397E-01 0.453E-03
 gam= 0.133 trial= 0.540  step= 0.645 mean= 0.540
 gam= 0.166 g(H,U,f)=  0.606E-02 0.524E-03 0.540E-18 ort(H,U,f) =-0.203E-03 0.272E-03 0.462E-18
CGA:   3    -0.593756649253E+03   -0.12849E-01   -0.12845E-01  1200   0.658E-02 0.692E-04
 gam= 0.166 trial= 0.545  step= 0.596 mean= 0.545
 gam= 0.295 g(H,U,f)=  0.172E-02 0.228E-03 0.718E-19 ort(H,U,f) =-0.386E-03 0.333E-03 0.130E-18
CGA:   4    -0.593758613524E+03   -0.19643E-02   -0.19656E-02  1200   0.194E-02-0.526E-04
 gam= 0.295 trial= 0.548  step= 0.584 mean= 0.548
 gam= 0.306 g(H,U,f)=  0.513E-03 0.812E-04 0.160E-14 ort(H,U,f) =-0.188E-03 0.171E-03 0.377E-14
CGA:   5    -0.593759175980E+03   -0.56246E-03   -0.56276E-03  1200   0.594E-03-0.172E-04
 gam= 0.306 trial= 0.550  step= 0.700 mean= 0.550
 gam= 0.282 g(H,U,f)=  0.149E-03 0.183E-04 0.154E-15 ort(H,U,f) =-0.514E-04 0.517E-04 0.653E-15
CGA:   6    -0.593759382270E+03   -0.20629E-03   -0.20627E-03  1200   0.168E-03 0.235E-06
 gam= 0.282 trial= 0.557  step= 0.748 mean= 0.557
 gam= 0.313 g(H,U,f)=  0.491E-04 0.339E-05 0.792E-17 ort(H,U,f) =-0.162E-04 0.902E-05 0.713E-16
CGA:   7    -0.593759444277E+03   -0.62007E-04   -0.62691E-04  1200   0.525E-04-0.716E-05
 gam= 0.313 trial= 0.567  step= 0.661 mean= 0.567
 gam= 0.249 g(H,U,f)=  0.121E-04 0.101E-05 0.291E-19 ort(H,U,f) =-0.453E-05 0.257E-06 0.191E-17
CGA:   8    -0.593759460671E+03   -0.16394E-04   -0.16595E-04  1200   0.131E-04-0.427E-05
 gam= 0.249 trial= 0.571  step= 0.614 mean= 0.571
 gam= 0.194 g(H,U,f)=  0.239E-05 0.145E-06 0.884E-18 ort(H,U,f) = 0.746E-06-0.189E-06-0.308E-17
CGA:   9    -0.593759464371E+03   -0.37003E-05   -0.36887E-05  1200   0.254E-05 0.558E-06
 gam= 0.194 trial= 0.574  step= 0.530 mean= 0.574
 final diagonalization
   2 F= -.59375946E+03 E0= -.59375946E+03  d E =-.150675E-01
 trial-energy change:   -0.015067  1 .order   -0.015065   -0.019460   -0.010669
 step:   2.2136(harm=  2.2136)  dis= 0.01446  next Energy=  -593.765935 (dE=-0.215E-01)
 bond charge predicted
 wavefunctions rotated
       N       E                     dE             d eps       ncg     rms          ort
 gam= 0.000 g(H,U,f)=  0.417E+00 0.228E-01 0.256E-19 ort(H,U,f) = 0.000E+00 0.000E+00 0.000E+00
SDA:   1    -0.593645808911E+03    0.11365E+00    0.00000E+00  1200   0.440E+00 0.000E+00
 gam= 0.000 trial= 0.571  step= 0.441 mean= 0.571
 gam= 0.133 g(H,U,f)=  0.549E-01 0.360E-02 0.446E-18 ort(H,U,f) = 0.689E-02-0.637E-02-0.319E-18
CGA:   2    -0.593742835042E+03   -0.97026E-01   -0.97043E-01  1200   0.585E-01 0.520E-03
 gam= 0.133 trial= 0.565  step= 0.646 mean= 0.565
 gam= 0.166 g(H,U,f)=  0.892E-02 0.775E-03 0.450E-20 ort(H,U,f) =-0.316E-03 0.397E-03 0.798E-20
CGA:   3    -0.593761748833E+03   -0.18914E-01   -0.18910E-01  1200   0.969E-02 0.804E-04
 gam= 0.166 trial= 0.569  step= 0.595 mean= 0.569
 gam= 0.294 g(H,U,f)=  0.251E-02 0.336E-03 0.724E-17 ort(H,U,f) =-0.554E-03 0.492E-03 0.133E-16
CGA:   4    -0.593764633568E+03   -0.28847E-02   -0.28855E-02  1200   0.285E-02-0.615E-04
 gam= 0.294 trial= 0.570  step= 0.583 mean= 0.570
 gam= 0.306 g(H,U,f)=  0.752E-03 0.120E-03 0.101E-17 ort(H,U,f) =-0.273E-03 0.253E-03 0.252E-17
CGA:   5    -0.593765459333E+03   -0.82576E-03   -0.82590E-03  1200   0.872E-03-0.200E-04
 gam= 0.306 trial= 0.571  step= 0.702 mean= 0.571
 gam= 0.284 g(H,U,f)=  0.220E-03 0.271E-04 0.109E-18 ort(H,U,f) =-0.759E-04 0.764E-04 0.400E-18
CGA:   6    -0.593765763440E+03   -0.30411E-03   -0.30407E-03  1200   0.248E-03 0.512E-06
 gam= 0.284 trial= 0.577  step= 0.740 mean= 0.577
 gam= 0.308 g(H,U,f)=  0.712E-04 0.504E-05 0.740E-20 ort(H,U,f) =-0.217E-04 0.136E-04 0.500E-19
CGA:   7    -0.593765854480E+03   -0.91040E-04   -0.91700E-04  1200   0.762E-04-0.808E-05
 gam= 0.308 trial= 0.586  step= 0.655 mean= 0.586
 gam= 0.244 g(H,U,f)=  0.171E-04 0.144E-05 0.464E-21 ort(H,U,f) =-0.553E-05 0.605E-06 0.570E-20
CGA:   8    -0.593765878437E+03   -0.23958E-04   -0.24128E-04  1200   0.186E-04-0.492E-05
 gam= 0.244 trial= 0.589  step= 0.629 mean= 0.589
 gam= 0.199 g(H,U,f)=  0.347E-05 0.218E-06 0.102E-21 ort(H,U,f) = 0.865E-06-0.253E-06-0.933E-21
CGA:   9    -0.593765883909E+03   -0.54713E-05   -0.54594E-05  1200   0.369E-05 0.612E-06
 gam= 0.199 trial= 0.591  step= 0.563 mean= 0.591
 gam= 0.234 g(H,U,f)=  0.806E-06 0.587E-07 0.162E-21 ort(H,U,f) = 0.740E-06 0.636E-07-0.115E-21
CGA:  10    -0.593765884970E+03   -0.10614E-05   -0.10723E-05  1200   0.864E-06 0.804E-06
 gam= 0.234 trial= 0.590  step= 0.699 mean= 0.590
 final diagonalization
   3 F= -.59376588E+03 E0= -.59376588E+03  d E =-.214881E-01
 curvature:  -1.11 expect dE=-0.638E-01 dE for cont linesearch -0.159E-06
 trial: gam= 2.96695 g(F)=  0.501E-01 g(S)=  0.762E-02 ort =-0.529E-04 (trialstep = 0.106E+00)
 search vector abs. value=  0.229E+00
 bond charge predicted
 wavefunctions rotated
       N       E                     dE             d eps       ncg     rms          ort
 gam= 0.000 g(H,U,f)=  0.527E-01 0.208E-02 0.836E-19 ort(H,U,f) = 0.000E+00 0.000E+00 0.000E+00
SDA:   1    -0.593754927458E+03    0.10956E-01    0.00000E+00  1200   0.548E-01 0.000E+00
 gam= 0.000 trial= 0.595  step= 0.457 mean= 0.595
 gam= 0.177 g(H,U,f)=  0.915E-02 0.566E-03 0.216E-18 ort(H,U,f) = 0.994E-03-0.882E-03 0.156E-18
CGA:   2    -0.593767425517E+03   -0.12498E-01   -0.12505E-01  1200   0.972E-02 0.112E-03
 gam= 0.177 trial= 0.588  step= 0.655 mean= 0.588
 gam= 0.189 g(H,U,f)=  0.173E-02 0.108E-03 0.358E-18 ort(H,U,f) =-0.503E-04 0.457E-04 0.247E-18
CGA:   3    -0.593770616052E+03   -0.31905E-02   -0.31907E-02  1200   0.184E-02-0.456E-05
 gam= 0.189 trial= 0.592  step= 0.527 mean= 0.592
 gam= 0.237 g(H,U,f)=  0.406E-03 0.300E-04 0.124E-18 ort(H,U,f) =-0.574E-04 0.457E-04 0.214E-18
CGA:   4    -0.593771100669E+03   -0.48462E-03   -0.48424E-03  1200   0.436E-03-0.117E-04
 gam= 0.237 trial= 0.588  step= 0.579 mean= 0.588
 gam= 0.234 g(H,U,f)=  0.878E-04 0.141E-04 0.452E-19 ort(H,U,f) =-0.322E-04 0.257E-04 0.107E-18
CGA:   5    -0.593771226147E+03   -0.12548E-03   -0.12545E-03  1200   0.102E-03-0.656E-05
 gam= 0.234 trial= 0.588  step= 0.683 mean= 0.588
 gam= 0.286 g(H,U,f)=  0.258E-04 0.331E-05 0.148E-19 ort(H,U,f) =-0.787E-05 0.842E-05 0.406E-19
CGA:   6    -0.593771260463E+03   -0.34316E-04   -0.34290E-04  1200   0.291E-04 0.547E-06
 gam= 0.286 trial= 0.593  step= 0.758 mean= 0.593
 gam= 0.380 g(H,U,f)=  0.102E-04 0.883E-06 0.203E-20 ort(H,U,f) =-0.302E-05 0.163E-05 0.102E-19
CGA:   7    -0.593771271453E+03   -0.10991E-04   -0.11106E-04  1200   0.111E-04-0.139E-05
 gam= 0.380 trial= 0.601  step= 0.750 mean= 0.601
 gam= 0.277 g(H,U,f)=  0.295E-05 0.120E-06 0.136E-21 ort(H,U,f) =-0.137E-05 0.169E-06 0.163E-20
CGA:   8    -0.593771275320E+03   -0.38671E-05   -0.39574E-05  1200   0.307E-05-0.120E-05
 gam= 0.277 trial= 0.608  step= 0.612 mean= 0.608
 final diagonalization
   4 F= -.59377128E+03 E0= -.59377128E+03  d E =-.539035E-02
 ZBRENT: can't locate minimum, use default step
 trial-energy change:   -0.005390  1 .order   -0.005402   -0.006084   -0.004720
 step:   0.4230(harm=  0.4717)  dis= 0.01028  next Energy=  -593.779453 (dE=-0.136E-01)
 bond charge predicted
 wavefunctions rotated
       N       E                     dE             d eps       ncg     rms          ort
 gam= 0.000 g(H,U,f)=  0.476E+00 0.189E-01 0.220E-17 ort(H,U,f) = 0.000E+00 0.000E+00 0.000E+00
SDA:   1    -0.593631827677E+03    0.13944E+00    0.00000E+00  1200   0.495E+00 0.000E+00
 gam= 0.000 trial= 0.609  step= 0.457 mean= 0.609
 gam= 0.177 g(H,U,f)=  0.825E-01 0.510E-02 0.363E-17 ort(H,U,f) = 0.831E-02-0.803E-02 0.438E-17
CGA:   2    -0.593744777801E+03   -0.11295E+00   -0.11294E+00  1200   0.876E-01 0.285E-03
 gam= 0.177 trial= 0.601  step= 0.655 mean= 0.601
 gam= 0.188 g(H,U,f)=  0.155E-01 0.979E-03 0.390E-17 ort(H,U,f) =-0.414E-03 0.401E-03 0.216E-17
CGA:   3    -0.593773476823E+03   -0.28699E-01   -0.28699E-01  1200   0.165E-01-0.123E-04
 gam= 0.188 trial= 0.604  step= 0.526 mean= 0.604
 gam= 0.235 g(H,U,f)=  0.359E-02 0.271E-03 0.738E-18 ort(H,U,f) =-0.448E-03 0.410E-03 0.126E-17
CGA:   4    -0.593777809214E+03   -0.43324E-02   -0.43308E-02  1200   0.386E-02-0.379E-04
 gam= 0.235 trial= 0.600  step= 0.577 mean= 0.600
 gam= 0.232 g(H,U,f)=  0.766E-03 0.129E-03 0.235E-18 ort(H,U,f) =-0.251E-03 0.232E-03 0.556E-18
CGA:   5    -0.593778921220E+03   -0.11120E-02   -0.11118E-02  1200   0.895E-03-0.188E-04
 gam= 0.232 trial= 0.599  step= 0.693 mean= 0.599
 gam= 0.293 g(H,U,f)=  0.232E-03 0.300E-04 0.645E-19 ort(H,U,f) =-0.741E-04 0.758E-04 0.174E-18
CGA:   6    -0.593779229712E+03   -0.30849E-03   -0.30841E-03  1200   0.262E-03 0.176E-05
 gam= 0.293 trial= 0.603  step= 0.734 mean= 0.603
 gam= 0.356 g(H,U,f)=  0.854E-04 0.796E-05 0.851E-20 ort(H,U,f) =-0.200E-04 0.159E-04 0.413E-19
CGA:   7    -0.593779325891E+03   -0.96180E-04   -0.96451E-04  1200   0.933E-04-0.416E-05
 gam= 0.356 trial= 0.610  step= 0.715 mean= 0.610
 gam= 0.251 g(H,U,f)=  0.224E-04 0.105E-05 0.116E-20 ort(H,U,f) =-0.596E-05 0.264E-05 0.915E-20
CGA:   8    -0.593779358544E+03   -0.32653E-04   -0.32827E-04  1200   0.235E-04-0.333E-05
 gam= 0.251 trial= 0.615  step= 0.676 mean= 0.615
 gam= 0.203 g(H,U,f)=  0.454E-05 0.219E-06 0.122E-22 ort(H,U,f) = 0.806E-06-0.112E-06-0.384E-21
CGA:   9    -0.593779366212E+03   -0.76682E-05   -0.76475E-05  1200   0.475E-05 0.694E-06
 gam= 0.203 trial= 0.618  step= 0.658 mean= 0.618
 gam= 0.220 g(H,U,f)=  0.964E-06 0.820E-07 0.903E-22 ort(H,U,f) = 0.377E-06 0.377E-07-0.194E-21
CGA:  10    -0.593779367831E+03   -0.16188E-05   -0.16103E-05  1200   0.105E-05 0.414E-06
 gam= 0.220 trial= 0.620  step= 1.018 mean= 0.620
 final diagonalization
   5 F= -.59377937E+03 E0= -.59377937E+03  d E =-.134829E-01
 curvature:  -0.92 expect dE=-0.522E-01 dE for cont linesearch -0.184E-03
 trial: gam= 0.86507 g(F)=  0.547E-01 g(S)=  0.192E-02 ort = 0.675E-02 (trialstep = 0.162E+00)
 search vector abs. value=  0.239E+00
 bond charge predicted
 wavefunctions rotated
       N       E                     dE             d eps       ncg     rms          ort
 gam= 0.000 g(H,U,f)=  0.103E+00 0.422E-02 0.179E-17 ort(H,U,f) = 0.000E+00 0.000E+00 0.000E+00
SDA:   1    -0.593756944752E+03    0.22421E-01    0.00000E+00  1200   0.107E+00 0.000E+00
 gam= 0.000 trial= 0.640  step= 0.442 mean= 0.640
 gam= 0.160 g(H,U,f)=  0.160E-01 0.113E-02 0.136E-18 ort(H,U,f) = 0.190E-02-0.180E-02 0.588E-18
CGA:   2    -0.593780638911E+03   -0.23694E-01   -0.23700E-01  1200   0.172E-01 0.108E-03
 gam= 0.160 trial= 0.630  step= 0.659 mean= 0.630
 gam= 0.194 g(H,U,f)=  0.314E-02 0.187E-03 0.495E-18 ort(H,U,f) =-0.101E-03 0.849E-04 0.320E-18
CGA:   3    -0.593786299844E+03   -0.56609E-02   -0.56611E-02  1200   0.332E-02-0.160E-04
 gam= 0.194 trial= 0.632  step= 0.533 mean= 0.632
 gam= 0.241 g(H,U,f)=  0.752E-03 0.495E-04 0.158E-18 ort(H,U,f) =-0.830E-04 0.728E-04 0.270E-18
CGA:   4    -0.593787185330E+03   -0.88549E-03   -0.88496E-03  1200   0.801E-03-0.102E-04
 gam= 0.241 trial= 0.627  step= 0.581 mean= 0.627
 gam= 0.238 g(H,U,f)=  0.166E-03 0.250E-04 0.594E-19 ort(H,U,f) =-0.505E-04 0.455E-04 0.138E-18
CGA:   5    -0.593787417550E+03   -0.23222E-03   -0.23211E-03  1200   0.191E-03-0.505E-05
 gam= 0.238 trial= 0.624  step= 0.689 mean= 0.624
 gam= 0.292 g(H,U,f)=  0.500E-04 0.570E-05 0.173E-19 ort(H,U,f) =-0.132E-04 0.137E-04 0.492E-19
CGA:   6    -0.593787482873E+03   -0.65322E-04   -0.65307E-04  1200   0.557E-04 0.488E-06
 gam= 0.292 trial= 0.628  step= 0.728 mean= 0.628
 gam= 0.355 g(H,U,f)=  0.181E-04 0.165E-05 0.173E-20 ort(H,U,f) =-0.412E-05 0.230E-05 0.102E-19
CGA:   7    -0.593787503127E+03   -0.20254E-04   -0.20346E-04  1200   0.198E-04-0.182E-05
 gam= 0.355 trial= 0.633  step= 0.719 mean= 0.633
 gam= 0.250 g(H,U,f)=  0.470E-05 0.240E-06 0.397E-21 ort(H,U,f) =-0.137E-05 0.437E-06 0.272E-20
CGA:   8    -0.593787509962E+03   -0.68356E-05   -0.68759E-05  1200   0.494E-05-0.937E-06
 gam= 0.250 trial= 0.637  step= 0.634 mean= 0.637
 gam= 0.197 g(H,U,f)=  0.921E-06 0.496E-07 0.455E-23 ort(H,U,f) = 0.382E-06 0.397E-08-0.121E-21
CGA:   9    -0.593787511454E+03   -0.14911E-05   -0.14915E-05  1200   0.971E-06 0.386E-06
 gam= 0.197 trial= 0.637  step= 0.636 mean= 0.637
 final diagonalization
   6 F= -.59378751E+03 E0= -.59378751E+03  d E =-.814362E-02
 trial-energy change:   -0.008144  1 .order   -0.008172   -0.010100   -0.006244
 step:   0.4615(harm=  0.4232)  dis= 0.01131  next Energy=  -593.793123 (dE=-0.138E-01)
 bond charge predicted
 wavefunctions rotated
       N       E                     dE             d eps       ncg     rms          ort
 gam= 0.000 g(H,U,f)=  0.356E+00 0.146E-01 0.881E-17 ort(H,U,f) = 0.000E+00 0.000E+00 0.000E+00
SDA:   1    -0.593687075915E+03    0.10043E+00    0.00000E+00  1200   0.370E+00 0.000E+00
 gam= 0.000 trial= 0.637  step= 0.442 mean= 0.637
 gam= 0.160 g(H,U,f)=  0.552E-01 0.393E-02 0.253E-18 ort(H,U,f) = 0.643E-02-0.622E-02 0.204E-17
CGA:   2    -0.593768883596E+03   -0.81808E-01   -0.81796E-01  1200   0.591E-01 0.210E-03
 gam= 0.160 trial= 0.627  step= 0.659 mean= 0.627
 gam= 0.193 g(H,U,f)=  0.108E-01 0.644E-03 0.152E-17 ort(H,U,f) =-0.318E-03 0.289E-03 0.766E-18
CGA:   3    -0.593788381452E+03   -0.19498E-01   -0.19498E-01  1200   0.114E-01-0.293E-04
 gam= 0.193 trial= 0.629  step= 0.534 mean= 0.629
 gam= 0.241 g(H,U,f)=  0.257E-02 0.171E-03 0.337E-18 ort(H,U,f) =-0.271E-03 0.251E-03 0.573E-18
CGA:   4    -0.593791420837E+03   -0.30394E-02   -0.30383E-02  1200   0.274E-02-0.206E-04
 gam= 0.241 trial= 0.624  step= 0.579 mean= 0.624
 gam= 0.238 g(H,U,f)=  0.567E-03 0.866E-04 0.119E-18 ort(H,U,f) =-0.166E-03 0.157E-03 0.276E-18
CGA:   5    -0.593792214568E+03   -0.79373E-03   -0.79352E-03  1200   0.654E-03-0.932E-05
 gam= 0.238 trial= 0.622  step= 0.692 mean= 0.622
 gam= 0.295 g(H,U,f)=  0.173E-03 0.198E-04 0.331E-19 ort(H,U,f) =-0.463E-04 0.473E-04 0.916E-19
CGA:   6    -0.593792439983E+03   -0.22542E-03   -0.22538E-03  1200   0.193E-03 0.102E-05
 gam= 0.295 trial= 0.625  step= 0.716 mean= 0.625
 gam= 0.344 g(H,U,f)=  0.608E-04 0.568E-05 0.314E-20 ort(H,U,f) =-0.117E-04 0.835E-05 0.185E-19
CGA:   7    -0.593792509013E+03   -0.69030E-04   -0.69183E-04  1200   0.664E-04-0.336E-05
 gam= 0.344 trial= 0.630  step= 0.712 mean= 0.630
 gam= 0.246 g(H,U,f)=  0.155E-04 0.830E-06 0.954E-21 ort(H,U,f) =-0.352E-05 0.176E-05 0.561E-20
CGA:   8    -0.593792532169E+03   -0.23156E-04   -0.23228E-04  1200   0.164E-04-0.176E-05
 gam= 0.246 trial= 0.634  step= 0.667 mean= 0.634
 gam= 0.208 g(H,U,f)=  0.322E-05 0.187E-06 0.513E-23 ort(H,U,f) = 0.713E-06 0.424E-07-0.183E-21
CGA:   9    -0.593792537499E+03   -0.53304E-05   -0.53175E-05  1200   0.341E-05 0.755E-06
 gam= 0.208 trial= 0.636  step= 0.683 mean= 0.636
 gam= 0.235 g(H,U,f)=  0.727E-06 0.734E-07 0.374E-22 ort(H,U,f) = 0.169E-06 0.674E-07-0.954E-22
CGA:  10    -0.593792538722E+03   -0.12229E-05   -0.12170E-05  1200   0.800E-06 0.236E-06
 gam= 0.235 trial= 0.638  step= 1.120 mean= 0.638
 final diagonalization
   7 F= -.59379254E+03 E0= -.59379254E+03  d E =-.131709E-01
 curvature:  -0.79 expect dE=-0.197E-01 dE for cont linesearch -0.731E-04
 trial: gam= 0.72450 g(F)=  0.194E-01 g(S)=  0.543E-02 ort =-0.470E-02 (trialstep = 0.222E+00)
 search vector abs. value=  0.144E+00
 bond charge predicted
 wavefunctions rotated
       N       E                     dE             d eps       ncg     rms          ort
 gam= 0.000 g(H,U,f)=  0.139E+00 0.548E-02 0.169E-17 ort(H,U,f) = 0.000E+00 0.000E+00 0.000E+00
SDA:   1    -0.593754548065E+03    0.37989E-01    0.00000E+00  1200   0.144E+00 0.000E+00
 gam= 0.000 trial= 0.662  step= 0.443 mean= 0.662
 gam= 0.168 g(H,U,f)=  0.229E-01 0.136E-02 0.875E-18 ort(H,U,f) = 0.255E-02-0.236E-02 0.147E-17
CGA:   2    -0.593786524517E+03   -0.31976E-01   -0.31985E-01  1200   0.243E-01 0.189E-03
 gam= 0.168 trial= 0.651  step= 0.655 mean= 0.651
 gam= 0.194 g(H,U,f)=  0.442E-02 0.294E-03 0.154E-17 ort(H,U,f) =-0.106E-03 0.110E-03 0.108E-17
CGA:   3    -0.593794477666E+03   -0.79531E-02   -0.79531E-02  1200   0.472E-02 0.397E-05
 gam= 0.194 trial= 0.651  step= 0.521 mean= 0.651
 gam= 0.237 g(H,U,f)=  0.104E-02 0.789E-04 0.464E-18 ort(H,U,f) =-0.132E-03 0.111E-03 0.794E-18
CGA:   4    -0.593795708919E+03   -0.12313E-02   -0.12299E-02  1200   0.112E-02-0.208E-04
 gam= 0.237 trial= 0.645  step= 0.590 mean= 0.645
 gam= 0.239 g(H,U,f)=  0.229E-03 0.377E-04 0.166E-18 ort(H,U,f) =-0.810E-04 0.685E-04 0.389E-18
CGA:   5    -0.593796037382E+03   -0.32846E-03   -0.32812E-03  1200   0.267E-03-0.125E-04
 gam= 0.239 trial= 0.642  step= 0.687 mean= 0.642
 gam= 0.299 g(H,U,f)=  0.697E-04 0.994E-05 0.585E-19 ort(H,U,f) =-0.226E-04 0.240E-04 0.150E-18
CGA:   6    -0.593796127925E+03   -0.90543E-04   -0.90510E-04  1200   0.797E-04 0.146E-05
 gam= 0.299 trial= 0.644  step= 0.724 mean= 0.644
 gam= 0.359 g(H,U,f)=  0.257E-04 0.283E-05 0.826E-20 ort(H,U,f) =-0.653E-05 0.483E-05 0.394E-19
CGA:   7    -0.593796156868E+03   -0.28943E-04   -0.29011E-04  1200   0.286E-04-0.170E-05
 gam= 0.359 trial= 0.648  step= 0.748 mean= 0.648
 gam= 0.263 g(H,U,f)=  0.715E-05 0.349E-06 0.122E-20 ort(H,U,f) =-0.275E-05 0.677E-06 0.910E-20
CGA:   8    -0.593796167228E+03   -0.10360E-04   -0.10464E-04  1200   0.750E-05-0.207E-05
 gam= 0.263 trial= 0.653  step= 0.650 mean= 0.653
 gam= 0.193 g(H,U,f)=  0.139E-05 0.564E-07 0.479E-24 ort(H,U,f) = 0.374E-06-0.651E-07 0.757E-22
CGA:   9    -0.593796169491E+03   -0.22626E-05   -0.22628E-05  1200   0.145E-05 0.309E-06
 gam= 0.193 trial= 0.653  step= 0.597 mean= 0.653
 final diagonalization
   8 F= -.59379617E+03 E0= -.59379617E+03  d E =-.363077E-02
 trial-energy change:   -0.003631  1 .order   -0.003649   -0.004750   -0.002547
 step:   0.4776(harm=  0.4776)  dis= 0.00941  next Energy=  -593.797659 (dE=-0.512E-02)
 bond charge predicted
 wavefunctions rotated
       N       E                     dE             d eps       ncg     rms          ort
 gam= 0.000 g(H,U,f)=  0.185E+00 0.730E-02 0.324E-17 ort(H,U,f) = 0.000E+00 0.000E+00 0.000E+00
SDA:   1    -0.593742076463E+03    0.54091E-01    0.00000E+00  1200   0.193E+00 0.000E+00
 gam= 0.000 trial= 0.650  step= 0.444 mean= 0.650
 gam= 0.168 g(H,U,f)=  0.306E-01 0.183E-02 0.151E-17 ort(H,U,f) = 0.338E-02-0.316E-02 0.273E-17
CGA:   2    -0.593784800104E+03   -0.42724E-01   -0.42729E-01  1200   0.324E-01 0.220E-03
 gam= 0.168 trial= 0.640  step= 0.655 mean= 0.640
 gam= 0.194 g(H,U,f)=  0.589E-02 0.392E-03 0.283E-17 ort(H,U,f) =-0.142E-03 0.147E-03 0.196E-17
CGA:   3    -0.593795416416E+03   -0.10616E-01   -0.10616E-01  1200   0.628E-02 0.538E-05
 gam= 0.194 trial= 0.641  step= 0.522 mean= 0.641
 gam= 0.237 g(H,U,f)=  0.138E-02 0.105E-03 0.745E-18 ort(H,U,f) =-0.173E-03 0.148E-03 0.127E-17
CGA:   4    -0.593797055685E+03   -0.16393E-02   -0.16377E-02  1200   0.149E-02-0.249E-04
 gam= 0.237 trial= 0.635  step= 0.589 mean= 0.635
 gam= 0.239 g(H,U,f)=  0.305E-03 0.505E-04 0.282E-18 ort(H,U,f) =-0.106E-03 0.916E-04 0.657E-18
CGA:   5    -0.593797491672E+03   -0.43599E-03   -0.43565E-03  1200   0.355E-03-0.147E-04
 gam= 0.239 trial= 0.632  step= 0.689 mean= 0.632
 gam= 0.300 g(H,U,f)=  0.935E-04 0.133E-04 0.974E-19 ort(H,U,f) =-0.303E-04 0.321E-04 0.251E-18
CGA:   6    -0.593797612833E+03   -0.12116E-03   -0.12111E-03  1200   0.107E-03 0.175E-05
 gam= 0.300 trial= 0.635  step= 0.722 mean= 0.635
 gam= 0.356 g(H,U,f)=  0.343E-04 0.377E-05 0.135E-19 ort(H,U,f) =-0.842E-05 0.644E-05 0.649E-19
CGA:   7    -0.593797651442E+03   -0.38609E-04   -0.38694E-04  1200   0.380E-04-0.198E-05
 gam= 0.356 trial= 0.640  step= 0.744 mean= 0.640
 gam= 0.259 g(H,U,f)=  0.940E-05 0.462E-06 0.226E-20 ort(H,U,f) =-0.337E-05 0.942E-06 0.162E-19
CGA:   8    -0.593797665199E+03   -0.13757E-04   -0.13884E-04  1200   0.987E-05-0.242E-05
 gam= 0.259 trial= 0.645  step= 0.657 mean= 0.645
 gam= 0.196 g(H,U,f)=  0.186E-05 0.770E-07 0.160E-23 ort(H,U,f) = 0.441E-06-0.763E-07 0.183E-21
CGA:   9    -0.593797668237E+03   -0.30381E-05   -0.30360E-05  1200   0.193E-05 0.365E-06
 gam= 0.196 trial= 0.645  step= 0.611 mean= 0.645
 final diagonalization
   9 F= -.59379767E+03 E0= -.59379767E+03  d E =-.512952E-02
 curvature:  -1.60 expect dE=-0.490E-01 dE for cont linesearch -0.744E-06
 trial: gam= 0.85684 g(F)=  0.193E-01 g(S)=  0.114E-01 ort = 0.258E-03 (trialstep = 0.273E+00)
 search vector abs. value=  0.137E+00
 bond charge predicted
 wavefunctions rotated
       N       E                     dE             d eps       ncg     rms          ort
 gam= 0.000 g(H,U,f)=  0.168E+00 0.728E-02 0.501E-16 ort(H,U,f) = 0.000E+00 0.000E+00 0.000E+00
SDA:   1    -0.593754619004E+03    0.43046E-01    0.00000E+00  1200   0.175E+00 0.000E+00
 gam= 0.000 trial= 0.644  step= 0.446 mean= 0.644
 gam= 0.163 g(H,U,f)=  0.270E-01 0.140E-02 0.102E-19 ort(H,U,f) = 0.296E-02-0.260E-02-0.474E-20
CGA:   2    -0.593793627126E+03   -0.39008E-01   -0.39029E-01  1200   0.284E-01 0.357E-03
 gam= 0.163 trial= 0.634  step= 0.641 mean= 0.634
 gam= 0.191 g(H,U,f)=  0.504E-02 0.383E-03 0.261E-16 ort(H,U,f) =-0.893E-04 0.146E-03 0.228E-16
CGA:   3    -0.593802766026E+03   -0.91389E-02   -0.91387E-02  1200   0.543E-02 0.569E-04
 gam= 0.191 trial= 0.634  step= 0.532 mean= 0.634
 gam= 0.246 g(H,U,f)=  0.120E-02 0.132E-03 0.515E-17 ort(H,U,f) =-0.226E-03 0.184E-03 0.966E-17
CGA:   4    -0.593804213643E+03   -0.14476E-02   -0.14454E-02  1200   0.134E-02-0.417E-04
 gam= 0.246 trial= 0.629  step= 0.598 mean= 0.629
 gam= 0.261 g(H,U,f)=  0.297E-03 0.514E-04 0.134E-17 ort(H,U,f) =-0.125E-03 0.100E-03 0.336E-17
CGA:   5    -0.593804610358E+03   -0.39672E-03   -0.39633E-03  1200   0.348E-03-0.244E-04
 gam= 0.261 trial= 0.628  step= 0.689 mean= 0.628
 gam= 0.307 g(H,U,f)=  0.923E-04 0.147E-04 0.372E-18 ort(H,U,f) =-0.348E-04 0.373E-04 0.103E-17
CGA:   6    -0.593804728255E+03   -0.11790E-03   -0.11782E-03  1200   0.107E-03 0.248E-05
 gam= 0.307 trial= 0.631  step= 0.720 mean= 0.631
 gam= 0.343 g(H,U,f)=  0.328E-04 0.392E-05 0.416E-19 ort(H,U,f) =-0.106E-04 0.836E-05 0.221E-18
CGA:   7    -0.593804766943E+03   -0.38688E-04   -0.38790E-04  1200   0.367E-04-0.227E-05
 gam= 0.343 trial= 0.635  step= 0.745 mean= 0.635
 gam= 0.270 g(H,U,f)=  0.933E-05 0.585E-06 0.467E-20 ort(H,U,f) =-0.446E-05 0.482E-06 0.410E-19
CGA:   8    -0.593804780110E+03   -0.13167E-04   -0.13385E-04  1200   0.992E-05-0.397E-05
 gam= 0.270 trial= 0.641  step= 0.640 mean= 0.641
 gam= 0.180 g(H,U,f)=  0.172E-05 0.684E-07 0.105E-21 ort(H,U,f) = 0.264E-06-0.162E-06-0.249E-20
CGA:   9    -0.593804782940E+03   -0.28296E-05   -0.28295E-05  1200   0.179E-05 0.102E-06
 gam= 0.180 trial= 0.641  step= 0.513 mean= 0.641
 final diagonalization
  10 F= -.59380478E+03 E0= -.59380478E+03  d E =-.711470E-02
 trial-energy change:   -0.007115  1 .order   -0.007111   -0.008410   -0.005811
 step:   0.8824(harm=  0.8824)  dis= 0.01575  next Energy=  -593.811272 (dE=-0.136E-01)
 bond charge predicted
 wavefunctions rotated
       N       E                     dE             d eps       ncg     rms          ort
 gam= 0.000 g(H,U,f)=  0.840E+00 0.368E-01 0.173E-18 ort(H,U,f) = 0.000E+00 0.000E+00 0.000E+00
SDA:   1    -0.593559812759E+03    0.24497E+00    0.00000E+00  1200   0.876E+00 0.000E+00
 gam= 0.000 trial= 0.634  step= 0.447 mean= 0.634
 gam= 0.162 g(H,U,f)=  0.135E+00 0.699E-02 0.454E-17 ort(H,U,f) = 0.138E-01-0.130E-01-0.214E-17
CGA:   2    -0.593755554780E+03   -0.19574E+00   -0.19567E+00  1200   0.142E+00 0.776E-03
 gam= 0.162 trial= 0.625  step= 0.642 mean= 0.625
 gam= 0.191 g(H,U,f)=  0.252E-01 0.194E-02 0.114E-18 ort(H,U,f) =-0.586E-03 0.727E-03 0.169E-18
CGA:   3    -0.593801229700E+03   -0.45675E-01   -0.45673E-01  1200   0.272E-01 0.141E-03
 gam= 0.191 trial= 0.626  step= 0.529 mean= 0.626
 gam= 0.243 g(H,U,f)=  0.594E-02 0.668E-03 0.341E-20 ort(H,U,f) =-0.103E-02 0.930E-03 0.884E-20
CGA:   4    -0.593808428727E+03   -0.71990E-02   -0.71940E-02  1200   0.661E-02-0.986E-04
 gam= 0.243 trial= 0.621  step= 0.596 mean= 0.621
 gam= 0.258 g(H,U,f)=  0.144E-02 0.260E-03 0.164E-16 ort(H,U,f) =-0.560E-03 0.505E-03 0.414E-16
CGA:   5    -0.593810391520E+03   -0.19628E-02   -0.19621E-02  1200   0.170E-02-0.545E-04
 gam= 0.258 trial= 0.620  step= 0.698 mean= 0.620
 gam= 0.315 g(H,U,f)=  0.463E-03 0.737E-04 0.286E-17 ort(H,U,f) =-0.180E-03 0.186E-03 0.787E-17
CGA:   6    -0.593810981149E+03   -0.58963E-03   -0.58940E-03  1200   0.536E-03 0.579E-05
 gam= 0.315 trial= 0.624  step= 0.710 mean= 0.624
 gam= 0.333 g(H,U,f)=  0.159E-03 0.194E-04 0.245E-18 ort(H,U,f) =-0.482E-04 0.431E-04 0.130E-17
CGA:   7    -0.593811172022E+03   -0.19087E-03   -0.19110E-03  1200   0.178E-03-0.512E-05
 gam= 0.333 trial= 0.628  step= 0.708 mean= 0.628
 gam= 0.242 g(H,U,f)=  0.405E-04 0.260E-05 0.341E-19 ort(H,U,f) =-0.125E-04 0.424E-05 0.250E-18
CGA:   8    -0.593811234260E+03   -0.62238E-04   -0.62570E-04  1200   0.431E-04-0.825E-05
 gam= 0.242 trial= 0.632  step= 0.672 mean= 0.632
 gam= 0.196 g(H,U,f)=  0.814E-05 0.300E-06 0.110E-22 ort(H,U,f) = 0.490E-06-0.284E-06 0.184E-20
CGA:   9    -0.593811248080E+03   -0.13820E-04   -0.13816E-04  1200   0.844E-05 0.206E-06
 gam= 0.196 trial= 0.634  step= 0.610 mean= 0.634
 gam= 0.201 g(H,U,f)=  0.161E-05 0.873E-07 0.670E-21 ort(H,U,f) = 0.108E-05-0.152E-07-0.317E-20
CGA:  10    -0.593811250653E+03   -0.25731E-05   -0.25856E-05  1200   0.170E-05 0.106E-05
 gam= 0.201 trial= 0.633  step= 0.748 mean= 0.633
 final diagonalization
  11 F= -.59381125E+03 E0= -.59381125E+03  d E =-.135824E-01
 curvature:  -1.95 expect dE=-0.731E-01 dE for cont linesearch -0.112E-06
 trial: gam= 1.39801 g(F)=  0.365E-01 g(S)=  0.876E-03 ort =-0.883E-04 (trialstep = 0.177E+00)
 search vector abs. value=  0.304E+00
 bond charge predicted
 wavefunctions rotated
       N       E                     dE             d eps       ncg     rms          ort
 gam= 0.000 g(H,U,f)=  0.146E+00 0.614E-02 0.199E-19 ort(H,U,f) = 0.000E+00 0.000E+00 0.000E+00
SDA:   1    -0.593770389831E+03    0.40858E-01    0.00000E+00  1200   0.152E+00 0.000E+00
 gam= 0.000 trial= 0.638  step= 0.461 mean= 0.638
 gam= 0.178 g(H,U,f)=  0.257E-01 0.132E-02 0.278E-18 ort(H,U,f) = 0.266E-02-0.232E-02-0.109E-18
CGA:   2    -0.593805311712E+03   -0.34922E-01   -0.34942E-01  1200   0.270E-01 0.335E-03
 gam= 0.178 trial= 0.630  step= 0.635 mean= 0.630
 gam= 0.190 g(H,U,f)=  0.478E-02 0.362E-03 0.339E-19 ort(H,U,f) =-0.928E-04 0.144E-03 0.524E-19
CGA:   3    -0.593813908188E+03   -0.85965E-02   -0.85963E-02  1200   0.514E-02 0.516E-04
 gam= 0.190 trial= 0.630  step= 0.533 mean= 0.630
 gam= 0.241 g(H,U,f)=  0.112E-02 0.120E-03 0.327E-20 ort(H,U,f) =-0.202E-03 0.158E-03 0.850E-20
CGA:   4    -0.593815283393E+03   -0.13752E-02   -0.13731E-02  1200   0.124E-02-0.439E-04
 gam= 0.241 trial= 0.625  step= 0.595 mean= 0.625
 gam= 0.250 g(H,U,f)=  0.264E-03 0.458E-04 0.127E-20 ort(H,U,f) =-0.108E-03 0.862E-04 0.266E-20
CGA:   5    -0.593815648909E+03   -0.36552E-03   -0.36518E-03  1200   0.310E-03-0.220E-04
 gam= 0.250 trial= 0.623  step= 0.690 mean= 0.623
 gam= 0.308 g(H,U,f)=  0.826E-04 0.129E-04 0.236E-21 ort(H,U,f) =-0.299E-04 0.320E-04 0.692E-21
CGA:   6    -0.593815753924E+03   -0.10501E-03   -0.10494E-03  1200   0.954E-04 0.216E-05
 gam= 0.308 trial= 0.627  step= 0.719 mean= 0.627
 gam= 0.353 g(H,U,f)=  0.301E-04 0.365E-05 0.187E-22 ort(H,U,f) =-0.963E-05 0.736E-05 0.115E-21
CGA:   7    -0.593815788373E+03   -0.34449E-04   -0.34553E-04  1200   0.337E-04-0.227E-05
 gam= 0.353 trial= 0.631  step= 0.745 mean= 0.631
 gam= 0.273 g(H,U,f)=  0.864E-05 0.573E-06 0.123E-23 ort(H,U,f) =-0.396E-05 0.311E-06 0.152E-22
CGA:   8    -0.593815800422E+03   -0.12050E-04   -0.12257E-04  1200   0.921E-05-0.365E-05
 gam= 0.273 trial= 0.637  step= 0.639 mean= 0.637
 gam= 0.179 g(H,U,f)=  0.158E-05 0.613E-07 0.444E-24 ort(H,U,f) = 0.325E-06-0.160E-06-0.341E-23
CGA:   9    -0.593815803048E+03   -0.26255E-05   -0.26252E-05  1200   0.165E-05 0.165E-06
 gam= 0.179 trial= 0.637  step= 0.505 mean= 0.637
 final diagonalization
  12 F= -.59381580E+03 E0= -.59381580E+03  d E =-.455239E-02
 trial-energy change:   -0.004552  1 .order   -0.004559   -0.006610   -0.002509
 step:   0.2857(harm=  0.2857)  dis= 0.00773  next Energy=  -593.816577 (dE=-0.533E-02)
 bond charge predicted
 wavefunctions rotated
       N       E                     dE             d eps       ncg     rms          ort
 gam= 0.000 g(H,U,f)=  0.545E-01 0.229E-02 0.170E-19 ort(H,U,f) = 0.000E+00 0.000E+00 0.000E+00
SDA:   1    -0.593799596154E+03    0.16204E-01    0.00000E+00  1200   0.568E-01 0.000E+00
 gam= 0.000 trial= 0.631  step= 0.460 mean= 0.631
 gam= 0.178 g(H,U,f)=  0.958E-02 0.493E-03 0.191E-18 ort(H,U,f) = 0.108E-02-0.871E-03-0.737E-19
CGA:   2    -0.593812643420E+03   -0.13047E-01   -0.13063E-01  1200   0.101E-01 0.210E-03
 gam= 0.178 trial= 0.622  step= 0.635 mean= 0.622
 gam= 0.190 g(H,U,f)=  0.178E-02 0.135E-03 0.344E-19 ort(H,U,f) =-0.215E-04 0.544E-04 0.532E-19
CGA:   3    -0.593815856696E+03   -0.32133E-02   -0.32131E-02  1200   0.191E-02 0.329E-04
 gam= 0.190 trial= 0.623  step= 0.537 mean= 0.623
 gam= 0.244 g(H,U,f)=  0.422E-03 0.448E-04 0.512E-20 ort(H,U,f) =-0.856E-04 0.583E-04 0.134E-19
CGA:   4    -0.593816373753E+03   -0.51706E-03   -0.51589E-03  1200   0.467E-03-0.273E-04
 gam= 0.244 trial= 0.618  step= 0.597 mean= 0.618
 gam= 0.254 g(H,U,f)=  0.102E-03 0.170E-04 0.242E-20 ort(H,U,f) =-0.456E-04 0.320E-04 0.513E-20
CGA:   5    -0.593816511416E+03   -0.13766E-03   -0.13752E-03  1200   0.119E-03-0.136E-04
 gam= 0.254 trial= 0.617  step= 0.680 mean= 0.617
 gam= 0.299 g(H,U,f)=  0.308E-04 0.478E-05 0.552E-21 ort(H,U,f) =-0.106E-04 0.121E-04 0.162E-20
CGA:   6    -0.593816550671E+03   -0.39255E-04   -0.39209E-04  1200   0.356E-04 0.149E-05
 gam= 0.299 trial= 0.621  step= 0.730 mean= 0.621
 gam= 0.366 g(H,U,f)=  0.116E-04 0.138E-05 0.469E-22 ort(H,U,f) =-0.396E-05 0.267E-05 0.293E-21
CGA:   7    -0.593816563740E+03   -0.13068E-04   -0.13139E-04  1200   0.130E-04-0.129E-05
 gam= 0.366 trial= 0.626  step= 0.792 mean= 0.626
 gam= 0.321 g(H,U,f)=  0.390E-05 0.274E-06 0.193E-23 ort(H,U,f) =-0.234E-05-0.576E-07 0.320E-22
CGA:   8    -0.593816568501E+03   -0.47619E-05   -0.49607E-05  1200   0.417E-05-0.240E-05
 gam= 0.321 trial= 0.634  step= 0.604 mean= 0.634
 final diagonalization
  13 F= -.59381657E+03 E0= -.59381657E+03  d E =-.531785E-02
 curvature:  -1.17 expect dE=-0.176E-01 dE for cont linesearch -0.975E-08
 trial: gam= 0.39033 g(F)=  0.134E-01 g(S)=  0.168E-02 ort =-0.505E-04 (trialstep = 0.199E+00)
 search vector abs. value=  0.614E-01
 bond charge predicted
 wavefunctions rotated
       N       E                     dE             d eps       ncg     rms          ort
 gam= 0.000 g(H,U,f)=  0.363E-01 0.124E-02 0.108E-20 ort(H,U,f) = 0.000E+00 0.000E+00 0.000E+00
SDA:   1    -0.593808139978E+03    0.84238E-02    0.00000E+00  1200   0.375E-01 0.000E+00
 gam= 0.000 trial= 0.633  step= 0.459 mean= 0.633
 gam= 0.181 g(H,U,f)=  0.655E-02 0.256E-03 0.288E-19 ort(H,U,f) = 0.587E-03-0.464E-03-0.571E-20
CGA:   2    -0.593816749246E+03   -0.86093E-02   -0.86190E-02  1200   0.680E-02 0.123E-03
 gam= 0.181 trial= 0.624  step= 0.602 mean= 0.624
 gam= 0.208 g(H,U,f)=  0.133E-02 0.859E-04 0.118E-19 ort(H,U,f) =-0.226E-05 0.142E-04 0.166E-19
CGA:   3    -0.593818804350E+03   -0.20551E-02   -0.20552E-02  1200   0.141E-02 0.119E-04
 gam= 0.208 trial= 0.623  step= 0.526 mean= 0.623
 gam= 0.222 g(H,U,f)=  0.290E-03 0.241E-04 0.182E-20 ort(H,U,f) =-0.477E-04 0.339E-04 0.546E-20
CGA:   4    -0.593819177583E+03   -0.37323E-03   -0.37256E-03  1200   0.314E-03-0.138E-04
 gam= 0.222 trial= 0.618  step= 0.598 mean= 0.618
 gam= 0.259 g(H,U,f)=  0.711E-04 0.101E-04 0.140E-20 ort(H,U,f) =-0.270E-04 0.179E-04 0.269E-20
CGA:   5    -0.593819270673E+03   -0.93089E-04   -0.92999E-04  1200   0.812E-04-0.911E-05
 gam= 0.259 trial= 0.617  step= 0.642 mean= 0.617
 gam= 0.294 g(H,U,f)=  0.205E-04 0.335E-05 0.461E-21 ort(H,U,f) =-0.727E-05 0.741E-05 0.122E-20
CGA:   6    -0.593819295981E+03   -0.25308E-04   -0.25306E-04  1200   0.239E-04 0.148E-06
 gam= 0.294 trial= 0.618  step= 0.725 mean= 0.618
 gam= 0.340 g(H,U,f)=  0.721E-05 0.907E-06 0.382E-22 ort(H,U,f) =-0.239E-05 0.180E-05 0.244E-21
CGA:   7    -0.593819304612E+03   -0.86316E-05   -0.86629E-05  1200   0.812E-05-0.586E-06
 gam= 0.340 trial= 0.624  step= 0.806 mean= 0.624
 gam= 0.322 g(H,U,f)=  0.247E-05 0.146E-06 0.816E-23 ort(H,U,f) =-0.134E-05 0.117E-06 0.597E-22
CGA:   8    -0.593819307694E+03   -0.30815E-05   -0.31926E-05  1200   0.262E-05-0.122E-05
 gam= 0.322 trial= 0.633  step= 0.632 mean= 0.633
 final diagonalization
  14 F= -.59381931E+03 E0= -.59381931E+03  d E =-.273919E-02
 ZBRENT: can't locate minimum, use default step
 trial-energy change:   -0.002739  1 .order   -0.002743   -0.003000   -0.002486
 step:   0.7958(harm=  1.1595)  dis= 0.01150  next Energy=  -593.825311 (dE=-0.874E-02)
 bond charge predicted
 wavefunctions rotated
       N       E                     dE             d eps       ncg     rms          ort
 gam= 0.000 g(H,U,f)=  0.327E+00 0.112E-01 0.939E-19 ort(H,U,f) = 0.000E+00 0.000E+00 0.000E+00
SDA:   1    -0.593723728281E+03    0.95576E-01    0.00000E+00  1200   0.338E+00 0.000E+00
 gam= 0.000 trial= 0.633  step= 0.460 mean= 0.633
 gam= 0.182 g(H,U,f)=  0.590E-01 0.234E-02 0.233E-17 ort(H,U,f) = 0.455E-02-0.420E-02-0.501E-18
CGA:   2    -0.593801444203E+03   -0.77716E-01   -0.77720E-01  1200   0.614E-01 0.343E-03
 gam= 0.182 trial= 0.624  step= 0.601 mean= 0.624
 gam= 0.207 g(H,U,f)=  0.119E-01 0.777E-03 0.694E-18 ort(H,U,f) =-0.842E-04 0.124E-03 0.974E-18
CGA:   3    -0.593819915619E+03   -0.18471E-01   -0.18472E-01  1200   0.127E-01 0.399E-04
 gam= 0.207 trial= 0.623  step= 0.523 mean= 0.623
 gam= 0.220 g(H,U,f)=  0.258E-02 0.219E-03 0.691E-19 ort(H,U,f) =-0.351E-03 0.308E-03 0.203E-18
CGA:   4    -0.593823245354E+03   -0.33297E-02   -0.33275E-02  1200   0.280E-02-0.432E-04
 gam= 0.220 trial= 0.618  step= 0.591 mean= 0.618
 gam= 0.252 g(H,U,f)=  0.611E-03 0.927E-04 0.471E-19 ort(H,U,f) =-0.191E-03 0.164E-03 0.901E-19
CGA:   5    -0.593824069297E+03   -0.82394E-03   -0.82358E-03  1200   0.703E-03-0.270E-04
 gam= 0.252 trial= 0.617  step= 0.653 mean= 0.617
 gam= 0.306 g(H,U,f)=  0.184E-03 0.310E-04 0.137E-19 ort(H,U,f) =-0.666E-04 0.669E-04 0.353E-19
CGA:   6    -0.593824296761E+03   -0.22746E-03   -0.22746E-03  1200   0.215E-03 0.248E-06
 gam= 0.306 trial= 0.618  step= 0.713 mean= 0.618
 gam= 0.329 g(H,U,f)=  0.626E-04 0.817E-05 0.112E-20 ort(H,U,f) =-0.190E-04 0.170E-04 0.690E-20
CGA:   7    -0.593824373452E+03   -0.76690E-04   -0.76785E-04  1200   0.708E-04-0.199E-05
 gam= 0.329 trial= 0.623  step= 0.741 mean= 0.623
 gam= 0.264 g(H,U,f)=  0.177E-04 0.107E-05 0.273E-21 ort(H,U,f) =-0.561E-05 0.224E-05 0.178E-20
CGA:   8    -0.593824399257E+03   -0.25805E-04   -0.26005E-04  1200   0.187E-04-0.337E-05
 gam= 0.264 trial= 0.629  step= 0.678 mean= 0.629
 gam= 0.196 g(H,U,f)=  0.360E-05 0.767E-07 0.393E-24 ort(H,U,f) =-0.303E-07 0.409E-07-0.306E-22
CGA:   9    -0.593824405299E+03   -0.60415E-05   -0.60412E-05  1200   0.368E-05 0.107E-07
 gam= 0.196 trial= 0.632  step= 0.637 mean= 0.632
 gam= 0.196 g(H,U,f)=  0.690E-06 0.302E-07 0.185E-22 ort(H,U,f) = 0.386E-06-0.144E-07-0.421E-22
CGA:  10    -0.593824406471E+03   -0.11729E-05   -0.11719E-05  1200   0.720E-06 0.372E-06
 gam= 0.196 trial= 0.632  step= 0.763 mean= 0.632
 final diagonalization
  15 F= -.59382441E+03 E0= -.59382441E+03  d E =-.783797E-02
 curvature:  -2.02 expect dE=-0.225E-01 dE for cont linesearch -0.716E-03
 ZBRENT: increasing intervall
 opt :   1.9896  next Energy=  -593.820624 (dE=-0.406E-02)
 bond charge predicted
 wavefunctions rotated
       N       E                     dE             d eps       ncg     rms          ort
 gam= 0.000 g(H,U,f)=  0.131E+01 0.450E-01 0.899E-17 ort(H,U,f) = 0.000E+00 0.000E+00 0.000E+00
SDA:   1    -0.593417844046E+03    0.40656E+00    0.00000E+00  1200   0.135E+01 0.000E+00
 gam= 0.000 trial= 0.638  step= 0.460 mean= 0.638
 gam= 0.181 g(H,U,f)=  0.236E+00 0.948E-02 0.208E-15 ort(H,U,f) = 0.174E-01-0.169E-01-0.491E-16
CGA:   2    -0.593729034724E+03   -0.31119E+00   -0.31103E+00  1200   0.245E+00 0.529E-03
 gam= 0.181 trial= 0.629  step= 0.602 mean= 0.629
 gam= 0.207 g(H,U,f)=  0.476E-01 0.315E-02 0.395E-16 ort(H,U,f) =-0.348E-03 0.478E-03 0.552E-16
CGA:   3    -0.593802764006E+03   -0.73729E-01   -0.73733E-01  1200   0.507E-01 0.129E-03
 gam= 0.207 trial= 0.628  step= 0.522 mean= 0.628
 gam= 0.219 g(H,U,f)=  0.102E-01 0.887E-03 0.200E-17 ort(H,U,f) =-0.133E-02 0.124E-02 0.577E-17
CGA:   4    -0.593816033113E+03   -0.13269E-01   -0.13263E-01  1200   0.111E-01-0.938E-04
 gam= 0.219 trial= 0.623  step= 0.591 mean= 0.623
 gam= 0.249 g(H,U,f)=  0.240E-02 0.372E-03 0.111E-17 ort(H,U,f) =-0.713E-03 0.660E-03 0.212E-17
CGA:   5    -0.593819312183E+03   -0.32791E-02   -0.32782E-02  1200   0.277E-02-0.531E-04
 gam= 0.249 trial= 0.621  step= 0.658 mean= 0.621
 gam= 0.309 g(H,U,f)=  0.732E-03 0.125E-03 0.252E-18 ort(H,U,f) =-0.267E-03 0.268E-03 0.649E-18
CGA:   6    -0.593820218921E+03   -0.90674E-03   -0.90672E-03  1200   0.857E-03 0.860E-06
 gam= 0.309 trial= 0.623  step= 0.711 mean= 0.623
 gam= 0.327 g(H,U,f)=  0.247E-03 0.330E-04 0.188E-19 ort(H,U,f) =-0.727E-04 0.687E-04 0.111E-18
CGA:   7    -0.593820523408E+03   -0.30449E-03   -0.30466E-03  1200   0.280E-03-0.404E-05
 gam= 0.327 trial= 0.627  step= 0.725 mean= 0.627
 gam= 0.254 g(H,U,f)=  0.669E-04 0.434E-05 0.446E-20 ort(H,U,f) =-0.164E-04 0.983E-05 0.282E-19
CGA:   8    -0.593820624052E+03   -0.10064E-03   -0.10096E-03  1200   0.713E-04-0.657E-05
 gam= 0.254 trial= 0.632  step= 0.688 mean= 0.632
 gam= 0.205 g(H,U,f)=  0.143E-04 0.331E-06 0.759E-23 ort(H,U,f) =-0.422E-06 0.428E-06 0.537E-21
CGA:   9    -0.593820647987E+03   -0.23935E-04   -0.23935E-04  1200   0.146E-04 0.606E-08
 gam= 0.205 trial= 0.635  step= 0.672 mean= 0.635
 gam= 0.201 g(H,U,f)=  0.282E-05 0.117E-06 0.227E-21 ort(H,U,f) = 0.772E-06-0.523E-07-0.729E-21
CGA:  10    -0.593820652904E+03   -0.49169E-05   -0.49037E-05  1200   0.294E-05 0.720E-06
 gam= 0.201 trial= 0.637  step= 0.785 mean= 0.637
 final diagonalization
  16 F= -.59382065E+03 E0= -.59382065E+03  d E =-.408440E-02
 curvature:  10.68 expect dE= 0.721E+00 dE for cont linesearch  0.207E-01
 ZBRENT: bracketing found
 ZBRENT: interpolating
 opt :   1.1535  next Energy=  -593.825240 (dE=-0.867E-02)
 bond charge predicted
 wavefunctions rotated
       N       E                     dE             d eps       ncg     rms          ort
 gam= 0.000 g(H,U,f)=  0.640E+00 0.217E-01 0.876E-19 ort(H,U,f) = 0.000E+00 0.000E+00 0.000E+00
SDA:   1    -0.593627457280E+03    0.19319E+00    0.00000E+00  1200   0.662E+00 0.000E+00
 gam= 0.000 trial= 0.644  step= 0.462 mean= 0.644
 gam= 0.182 g(H,U,f)=  0.116E+00 0.470E-02 0.277E-17 ort(H,U,f) = 0.800E-02-0.842E-02-0.450E-18
CGA:   2    -0.593780248179E+03   -0.15279E+00   -0.15283E+00  1200   0.120E+00-0.422E-03
 gam= 0.182 trial= 0.635  step= 0.603 mean= 0.635
 gam= 0.207 g(H,U,f)=  0.234E-01 0.149E-02 0.252E-17 ort(H,U,f) =-0.344E-03 0.259E-03 0.368E-17
CGA:   3    -0.593816533207E+03   -0.36285E-01   -0.36283E-01  1200   0.249E-01-0.849E-04
 gam= 0.207 trial= 0.634  step= 0.520 mean= 0.634
 gam= 0.218 g(H,U,f)=  0.501E-02 0.421E-03 0.129E-17 ort(H,U,f) =-0.541E-03 0.597E-03 0.387E-17
CGA:   4    -0.593823001075E+03   -0.64679E-02   -0.64713E-02  1200   0.543E-02 0.559E-04
 gam= 0.218 trial= 0.628  step= 0.582 mean= 0.628
 gam= 0.245 g(H,U,f)=  0.115E-02 0.185E-03 0.129E-17 ort(H,U,f) =-0.284E-03 0.322E-03 0.246E-17
CGA:   5    -0.593824583989E+03   -0.15829E-02   -0.15838E-02  1200   0.133E-02 0.384E-04
 gam= 0.245 trial= 0.626  step= 0.664 mean= 0.626
 gam= 0.315 g(H,U,f)=  0.358E-03 0.613E-04 0.627E-18 ort(H,U,f) =-0.129E-03 0.130E-03 0.162E-17
CGA:   6    -0.593825028863E+03   -0.44487E-03   -0.44486E-03  1200   0.419E-03 0.558E-06
 gam= 0.315 trial= 0.628  step= 0.701 mean= 0.628
 gam= 0.320 g(H,U,f)=  0.118E-03 0.159E-04 0.725E-19 ort(H,U,f) =-0.318E-04 0.344E-04 0.456E-18
CGA:   7    -0.593825175957E+03   -0.14709E-03   -0.14700E-03  1200   0.134E-03 0.262E-05
 gam= 0.320 trial= 0.631  step= 0.693 mean= 0.631
 gam= 0.236 g(H,U,f)=  0.297E-04 0.193E-05 0.218E-19 ort(H,U,f) =-0.194E-05 0.639E-05 0.129E-18
CGA:   8    -0.593825222786E+03   -0.46830E-04   -0.46692E-04  1200   0.316E-04 0.445E-05
 gam= 0.236 trial= 0.634  step= 0.712 mean= 0.634
 gam= 0.227 g(H,U,f)=  0.702E-05 0.151E-06 0.269E-21 ort(H,U,f) =-0.424E-06 0.655E-06 0.598E-20
CGA:   9    -0.593825234435E+03   -0.11648E-04   -0.11639E-04  1200   0.717E-05 0.231E-06
 gam= 0.227 trial= 0.638  step= 0.761 mean= 0.638
 gam= 0.244 g(H,U,f)=  0.170E-05 0.551E-07 0.797E-21 ort(H,U,f) =-0.539E-06 0.133E-07-0.287E-20
CGA:  10    -0.593825237153E+03   -0.27181E-05   -0.27498E-05  1200   0.175E-05-0.525E-06
 gam= 0.244 trial= 0.644  step= 0.717 mean= 0.644
 final diagonalization
  17 F= -.59382524E+03 E0= -.59382524E+03  d E =-.866865E-02
 curvature:  -0.43 expect dE=-0.875E-02 dE for cont linesearch -0.617E-09
 trial: gam= 1.34781 g(F)=  0.194E-01 g(S)=  0.879E-03 ort = 0.937E-05 (trialstep = 0.182E+00)
 search vector abs. value=  0.132E+00
 bond charge predicted
 wavefunctions rotated
       N       E                     dE             d eps       ncg     rms          ort
 gam= 0.000 g(H,U,f)=  0.717E-01 0.227E-02 0.163E-19 ort(H,U,f) = 0.000E+00 0.000E+00 0.000E+00
SDA:   1    -0.593804108596E+03    0.21126E-01    0.00000E+00  1200   0.740E-01 0.000E+00
 gam= 0.000 trial= 0.648  step= 0.492 mean= 0.648
 gam= 0.203 g(H,U,f)=  0.145E-01 0.599E-03 0.337E-17 ort(H,U,f) = 0.114E-02-0.960E-03-0.244E-18
CGA:   2    -0.593822313984E+03   -0.18205E-01   -0.18217E-01  1200   0.151E-01 0.178E-03
 gam= 0.203 trial= 0.640  step= 0.602 mean= 0.640
 gam= 0.202 g(H,U,f)=  0.283E-02 0.211E-03 0.137E-17 ort(H,U,f) = 0.238E-04-0.876E-05 0.194E-17
CGA:   3    -0.593826860623E+03   -0.45466E-02   -0.45470E-02  1200   0.304E-02 0.151E-04
 gam= 0.202 trial= 0.638  step= 0.529 mean= 0.638
 gam= 0.203 g(H,U,f)=  0.571E-03 0.473E-04 0.243E-18 ort(H,U,f) =-0.892E-04 0.687E-04 0.660E-18
CGA:   4    -0.593827668150E+03   -0.80753E-03   -0.80640E-03  1200   0.618E-03-0.205E-04
 gam= 0.203 trial= 0.633  step= 0.607 mean= 0.633
 gam= 0.249 g(H,U,f)=  0.136E-03 0.180E-04 0.166E-18 ort(H,U,f) =-0.438E-04 0.339E-04 0.308E-18
CGA:   5    -0.593827854625E+03   -0.18647E-03   -0.18635E-03  1200   0.154E-03-0.989E-05
 gam= 0.249 trial= 0.632  step= 0.657 mean= 0.632
 gam= 0.305 g(H,U,f)=  0.401E-04 0.672E-05 0.474E-19 ort(H,U,f) =-0.128E-04 0.136E-04 0.128E-18
CGA:   6    -0.593827904294E+03   -0.49669E-04   -0.49658E-04  1200   0.469E-04 0.859E-06
 gam= 0.305 trial= 0.633  step= 0.748 mean= 0.633
 gam= 0.345 g(H,U,f)=  0.145E-04 0.168E-05 0.557E-20 ort(H,U,f) =-0.431E-05 0.333E-05 0.300E-19
CGA:   7    -0.593827921863E+03   -0.17569E-04   -0.17626E-04  1200   0.162E-04-0.982E-06
 gam= 0.345 trial= 0.639  step= 0.762 mean= 0.639
 gam= 0.295 g(H,U,f)=  0.440E-05 0.365E-06 0.106E-20 ort(H,U,f) =-0.163E-05 0.138E-06 0.724E-20
CGA:   8    -0.593827927807E+03   -0.59439E-05   -0.60363E-05  1200   0.477E-05-0.149E-05
 gam= 0.295 trial= 0.645  step= 0.646 mean= 0.645
 gam= 0.189 g(H,U,f)=  0.869E-06 0.335E-07 0.492E-22 ort(H,U,f) = 0.157E-07-0.558E-07-0.724E-21
CGA:   9    -0.593827929206E+03   -0.13991E-05   -0.13991E-05  1200   0.902E-06-0.401E-07
 gam= 0.189 trial= 0.645  step= 0.582 mean= 0.645
 final diagonalization
  18 F= -.59382793E+03 E0= -.59382793E+03  d E =-.269205E-02
 trial-energy change:   -0.002692  1 .order   -0.002698   -0.003687   -0.001708
 step:   0.3383(harm=  0.3383)  dis= 0.00745  next Energy=  -593.828672 (dE=-0.344E-02)
 bond charge predicted
 wavefunctions rotated
       N       E                     dE             d eps       ncg     rms          ort
 gam= 0.000 g(H,U,f)=  0.535E-01 0.169E-02 0.339E-19 ort(H,U,f) = 0.000E+00 0.000E+00 0.000E+00
SDA:   1    -0.593810922039E+03    0.17006E-01    0.00000E+00  1200   0.551E-01 0.000E+00
 gam= 0.000 trial= 0.642  step= 0.492 mean= 0.642
 gam= 0.203 g(H,U,f)=  0.108E-01 0.447E-03 0.689E-17 ort(H,U,f) = 0.871E-03-0.715E-03-0.497E-18
CGA:   2    -0.593824485094E+03   -0.13563E-01   -0.13574E-01  1200   0.112E-01 0.156E-03
 gam= 0.203 trial= 0.634  step= 0.603 mean= 0.634
 gam= 0.202 g(H,U,f)=  0.211E-02 0.157E-03 0.287E-17 ort(H,U,f) = 0.199E-04-0.656E-05 0.408E-17
CGA:   3    -0.593827873047E+03   -0.33880E-02   -0.33882E-02  1200   0.227E-02 0.133E-04
 gam= 0.202 trial= 0.633  step= 0.530 mean= 0.633
 gam= 0.204 g(H,U,f)=  0.426E-03 0.352E-04 0.535E-18 ort(H,U,f) =-0.688E-04 0.510E-04 0.145E-17
CGA:   4    -0.593828475030E+03   -0.60198E-03   -0.60107E-03  1200   0.461E-03-0.178E-04
 gam= 0.204 trial= 0.627  step= 0.608 mean= 0.627
 gam= 0.249 g(H,U,f)=  0.102E-03 0.134E-04 0.372E-18 ort(H,U,f) =-0.338E-04 0.252E-04 0.689E-18
CGA:   5    -0.593828614158E+03   -0.13913E-03   -0.13904E-03  1200   0.115E-03-0.861E-05
 gam= 0.249 trial= 0.627  step= 0.656 mean= 0.627
 gam= 0.305 g(H,U,f)=  0.300E-04 0.499E-05 0.107E-18 ort(H,U,f) =-0.935E-05 0.101E-04 0.291E-18
CGA:   6    -0.593828651195E+03   -0.37037E-04   -0.37025E-04  1200   0.350E-04 0.791E-06
 gam= 0.305 trial= 0.628  step= 0.752 mean= 0.628
 gam= 0.349 g(H,U,f)=  0.110E-04 0.125E-05 0.126E-19 ort(H,U,f) =-0.326E-05 0.244E-05 0.685E-19
CGA:   7    -0.593828664400E+03   -0.13205E-04   -0.13256E-04  1200   0.122E-04-0.821E-06
 gam= 0.349 trial= 0.634  step= 0.771 mean= 0.634
 gam= 0.304 g(H,U,f)=  0.342E-05 0.289E-06 0.228E-20 ort(H,U,f) =-0.136E-05 0.553E-07 0.162E-19
CGA:   8    -0.593828668906E+03   -0.45056E-05   -0.45955E-05  1200   0.371E-05-0.131E-05
 gam= 0.304 trial= 0.641  step= 0.640 mean= 0.641
 final diagonalization
  19 F= -.59382867E+03 E0= -.59382867E+03  d E =-.343175E-02
 curvature:  -1.10 expect dE=-0.975E-02 dE for cont linesearch -0.716E-07
 trial: gam= 0.42927 g(F)=  0.833E-02 g(S)=  0.541E-03 ort = 0.927E-04 (trialstep = 0.213E+00)
 search vector abs. value=  0.332E-01
 bond charge predicted
 wavefunctions rotated
       N       E                     dE             d eps       ncg     rms          ort
 gam= 0.000 g(H,U,f)=  0.231E-01 0.778E-03 0.317E-18 ort(H,U,f) = 0.000E+00 0.000E+00 0.000E+00
SDA:   1    -0.593822177215E+03    0.64872E-02    0.00000E+00  1200   0.239E-01 0.000E+00
 gam= 0.000 trial= 0.641  step= 0.516 mean= 0.641
 gam= 0.206 g(H,U,f)=  0.463E-02 0.281E-03 0.808E-17 ort(H,U,f) = 0.471E-03-0.360E-03 0.159E-17
CGA:   2    -0.593828328911E+03   -0.61517E-02   -0.61585E-02  1200   0.491E-02 0.110E-03
 gam= 0.206 trial= 0.635  step= 0.588 mean= 0.635
 gam= 0.203 g(H,U,f)=  0.907E-03 0.894E-04 0.376E-17 ort(H,U,f) = 0.339E-04-0.264E-04 0.529E-17
CGA:   3    -0.593829778577E+03   -0.14497E-02   -0.14498E-02  1200   0.997E-03 0.747E-05
 gam= 0.203 trial= 0.632  step= 0.546 mean= 0.632
 gam= 0.204 g(H,U,f)=  0.187E-03 0.165E-04 0.111E-17 ort(H,U,f) =-0.320E-04 0.193E-04 0.256E-17
CGA:   4    -0.593830051462E+03   -0.27289E-03   -0.27233E-03  1200   0.203E-03-0.127E-04
 gam= 0.204 trial= 0.628  step= 0.626 mean= 0.628
 gam= 0.253 g(H,U,f)=  0.457E-04 0.566E-05 0.608E-18 ort(H,U,f) =-0.156E-04 0.110E-04 0.120E-17
CGA:   5    -0.593830114361E+03   -0.62899E-04   -0.62895E-04  1200   0.514E-04-0.459E-05
 gam= 0.253 trial= 0.628  step= 0.663 mean= 0.628
 gam= 0.309 g(H,U,f)=  0.137E-04 0.213E-05 0.176E-18 ort(H,U,f) =-0.388E-05 0.405E-05 0.494E-18
CGA:   6    -0.593830131022E+03   -0.16662E-04   -0.16659E-04  1200   0.159E-04 0.165E-06
 gam= 0.309 trial= 0.630  step= 0.753 mean= 0.630
 gam= 0.358 g(H,U,f)=  0.511E-05 0.573E-06 0.291E-19 ort(H,U,f) =-0.171E-05 0.792E-06 0.138E-18
CGA:   7    -0.593830136960E+03   -0.59379E-05   -0.59948E-05  1200   0.569E-05-0.922E-06
 gam= 0.358 trial= 0.636  step= 0.767 mean= 0.636
 gam= 0.316 g(H,U,f)=  0.161E-05 0.181E-06 0.276E-20 ort(H,U,f) =-0.738E-06-0.744E-07 0.252E-19
CGA:   8    -0.593830138960E+03   -0.19997E-05   -0.20528E-05  1200   0.179E-05-0.813E-06
 gam= 0.316 trial= 0.642  step= 0.614 mean= 0.642
 final diagonalization
  20 F= -.59383014E+03 E0= -.59383014E+03  d E =-.147005E-02
 trial-energy change:   -0.001470  1 .order   -0.001471   -0.001897   -0.001044
 step:   0.4734(harm=  0.4734)  dis= 0.00546  next Energy=  -593.830778 (dE=-0.211E-02)
 bond charge predicted
 wavefunctions rotated
       N       E                     dE             d eps       ncg     rms          ort
 gam= 0.000 g(H,U,f)=  0.346E-01 0.116E-02 0.180E-17 ort(H,U,f) = 0.000E+00 0.000E+00 0.000E+00
SDA:   1    -0.593818851220E+03    0.11286E-01    0.00000E+00  1200   0.357E-01 0.000E+00
 gam= 0.000 trial= 0.641  step= 0.517 mean= 0.641
 gam= 0.206 g(H,U,f)=  0.693E-02 0.423E-03 0.490E-16 ort(H,U,f) = 0.673E-03-0.538E-03 0.933E-17
CGA:   2    -0.593828069286E+03   -0.92181E-02   -0.92262E-02  1200   0.736E-02 0.135E-03
 gam= 0.206 trial= 0.635  step= 0.588 mean= 0.635
 gam= 0.202 g(H,U,f)=  0.136E-02 0.134E-03 0.218E-16 ort(H,U,f) = 0.490E-04-0.400E-04 0.307E-16
CGA:   3    -0.593830238427E+03   -0.21691E-02   -0.21694E-02  1200   0.149E-02 0.900E-05
 gam= 0.202 trial= 0.632  step= 0.545 mean= 0.632
 gam= 0.203 g(H,U,f)=  0.278E-03 0.248E-04 0.632E-17 ort(H,U,f) =-0.445E-04 0.289E-04 0.145E-16
CGA:   4    -0.593830645205E+03   -0.40678E-03   -0.40609E-03  1200   0.302E-03-0.155E-04
 gam= 0.203 trial= 0.628  step= 0.626 mean= 0.628
 gam= 0.251 g(H,U,f)=  0.674E-04 0.847E-05 0.339E-17 ort(H,U,f) =-0.221E-04 0.165E-04 0.667E-17
CGA:   5    -0.593830738870E+03   -0.93665E-04   -0.93659E-04  1200   0.758E-04-0.561E-05
 gam= 0.251 trial= 0.628  step= 0.668 mean= 0.628
 gam= 0.311 g(H,U,f)=  0.204E-04 0.318E-05 0.956E-18 ort(H,U,f) =-0.581E-05 0.605E-05 0.268E-17
CGA:   6    -0.593830763718E+03   -0.24848E-04   -0.24843E-04  1200   0.236E-04 0.234E-06
 gam= 0.311 trial= 0.630  step= 0.746 mean= 0.630
 gam= 0.351 g(H,U,f)=  0.745E-05 0.842E-06 0.162E-18 ort(H,U,f) =-0.235E-05 0.122E-05 0.754E-18
CGA:   7    -0.593830772488E+03   -0.87696E-05   -0.88354E-05  1200   0.829E-05-0.113E-05
 gam= 0.351 trial= 0.636  step= 0.752 mean= 0.636
 gam= 0.301 g(H,U,f)=  0.225E-05 0.246E-06 0.176E-19 ort(H,U,f) =-0.897E-06-0.618E-07 0.145E-18
CGA:   8    -0.593830775402E+03   -0.29140E-05   -0.29695E-05  1200   0.249E-05-0.959E-06
 gam= 0.301 trial= 0.642  step= 0.626 mean= 0.642
 final diagonalization
  21 F= -.59383078E+03 E0= -.59383078E+03  d E =-.210650E-02
 curvature:  -0.88 expect dE=-0.744E-02 dE for cont linesearch -0.434E-08
 trial: gam= 0.95677 g(F)=  0.812E-02 g(S)=  0.300E-03 ort =-0.128E-04 (trialstep = 0.227E+00)
 search vector abs. value=  0.388E-01
 bond charge predicted
 wavefunctions rotated
       N       E                     dE             d eps       ncg     rms          ort
 gam= 0.000 g(H,U,f)=  0.287E-01 0.879E-03 0.167E-16 ort(H,U,f) = 0.000E+00 0.000E+00 0.000E+00
SDA:   1    -0.593822999956E+03    0.77725E-02    0.00000E+00  1200   0.296E-01 0.000E+00
 gam= 0.000 trial= 0.641  step= 0.498 mean= 0.641
 gam= 0.176 g(H,U,f)=  0.482E-02 0.383E-03 0.284E-16 ort(H,U,f) = 0.494E-03-0.413E-03 0.207E-16
CGA:   2    -0.593830358255E+03   -0.73583E-02   -0.73640E-02  1200   0.520E-02 0.809E-04
 gam= 0.176 trial= 0.634  step= 0.585 mean= 0.634
 gam= 0.201 g(H,U,f)=  0.944E-03 0.999E-04 0.277E-16 ort(H,U,f) = 0.582E-04-0.505E-04 0.296E-16
CGA:   3    -0.593831883516E+03   -0.15253E-02   -0.15255E-02  1200   0.104E-02 0.769E-05
 gam= 0.201 trial= 0.631  step= 0.552 mean= 0.631
 gam= 0.207 g(H,U,f)=  0.195E-03 0.206E-04 0.105E-16 ort(H,U,f) =-0.251E-04 0.164E-04 0.202E-16
CGA:   4    -0.593832172482E+03   -0.28897E-03   -0.28862E-03  1200   0.216E-03-0.872E-05
 gam= 0.207 trial= 0.627  step= 0.652 mean= 0.627
 gam= 0.257 g(H,U,f)=  0.497E-04 0.567E-05 0.407E-17 ort(H,U,f) =-0.163E-04 0.122E-04 0.892E-17
CGA:   5    -0.593832242180E+03   -0.69698E-04   -0.69749E-04  1200   0.554E-04-0.417E-05
 gam= 0.257 trial= 0.629  step= 0.688 mean= 0.629
 gam= 0.324 g(H,U,f)=  0.160E-04 0.197E-05 0.133E-17 ort(H,U,f) =-0.445E-05 0.398E-05 0.366E-17
CGA:   6    -0.593832260847E+03   -0.18667E-04   -0.18681E-04  1200   0.179E-04-0.464E-06
 gam= 0.324 trial= 0.631  step= 0.714 mean= 0.631
 gam= 0.320 g(H,U,f)=  0.522E-05 0.520E-06 0.270E-18 ort(H,U,f) =-0.152E-05 0.762E-06 0.116E-17
CGA:   7    -0.593832267163E+03   -0.63160E-05   -0.63472E-05  1200   0.574E-05-0.754E-06
 gam= 0.320 trial= 0.636  step= 0.712 mean= 0.636
 gam= 0.266 g(H,U,f)=  0.138E-05 0.145E-06 0.285E-19 ort(H,U,f) =-0.355E-06-0.128E-07 0.214E-18
CGA:   8    -0.593832269108E+03   -0.19451E-05   -0.19592E-05  1200   0.153E-05-0.367E-06
 gam= 0.266 trial= 0.639  step= 0.618 mean= 0.639
 final diagonalization
  22 F= -.59383227E+03 E0= -.59383227E+03  d E =-.149371E-02
 trial-energy change:   -0.001494  1 .order   -0.001495   -0.001908   -0.001082
 step:   0.5242(harm=  0.5242)  dis= 0.00674  next Energy=  -593.832980 (dE=-0.220E-02)
 bond charge predicted
 wavefunctions rotated
       N       E                     dE             d eps       ncg     rms          ort
 gam= 0.000 g(H,U,f)=  0.493E-01 0.151E-02 0.881E-16 ort(H,U,f) = 0.000E+00 0.000E+00 0.000E+00
SDA:   1    -0.593817039146E+03    0.15228E-01    0.00000E+00  1200   0.508E-01 0.000E+00
 gam= 0.000 trial= 0.638  step= 0.498 mean= 0.638
 gam= 0.176 g(H,U,f)=  0.827E-02 0.662E-03 0.154E-15 ort(H,U,f) = 0.816E-03-0.710E-03 0.109E-15
CGA:   2    -0.593829686412E+03   -0.12647E-01   -0.12654E-01  1200   0.894E-02 0.106E-03
 gam= 0.176 trial= 0.631  step= 0.585 mean= 0.631
 gam= 0.200 g(H,U,f)=  0.162E-02 0.172E-03 0.142E-15 ort(H,U,f) = 0.978E-04-0.878E-04 0.151E-15
CGA:   3    -0.593832304605E+03   -0.26182E-02   -0.26184E-02  1200   0.179E-02 0.101E-04
 gam= 0.200 trial= 0.629  step= 0.552 mean= 0.629
 gam= 0.206 g(H,U,f)=  0.333E-03 0.355E-04 0.522E-16 ort(H,U,f) =-0.396E-04 0.281E-04 0.100E-15
CGA:   4    -0.593832799386E+03   -0.49478E-03   -0.49434E-03  1200   0.368E-03-0.115E-04
 gam= 0.206 trial= 0.625  step= 0.652 mean= 0.625
 gam= 0.255 g(H,U,f)=  0.840E-04 0.976E-05 0.196E-16 ort(H,U,f) =-0.263E-04 0.209E-04 0.428E-16
CGA:   5    -0.593832918659E+03   -0.11927E-03   -0.11935E-03  1200   0.938E-04-0.547E-05
 gam= 0.255 trial= 0.627  step= 0.692 mean= 0.627
 gam= 0.325 g(H,U,f)=  0.271E-04 0.336E-05 0.621E-17 ort(H,U,f) =-0.744E-05 0.685E-05 0.170E-16
CGA:   6    -0.593832950619E+03   -0.31959E-04   -0.31979E-04  1200   0.305E-04-0.591E-06
 gam= 0.325 trial= 0.630  step= 0.709 mean= 0.630
 gam= 0.316 g(H,U,f)=  0.877E-05 0.871E-06 0.126E-17 ort(H,U,f) =-0.235E-05 0.135E-05 0.533E-17
CGA:   7    -0.593832961323E+03   -0.10704E-04   -0.10744E-04  1200   0.964E-05-0.100E-05
 gam= 0.316 trial= 0.634  step= 0.706 mean= 0.634
 gam= 0.261 g(H,U,f)=  0.228E-05 0.236E-06 0.142E-18 ort(H,U,f) =-0.480E-06 0.102E-07 0.101E-17
CGA:   8    -0.593832964595E+03   -0.32718E-05   -0.32889E-05  1200   0.252E-05-0.470E-06
 gam= 0.261 trial= 0.637  step= 0.628 mean= 0.637
 final diagonalization
  23 F= -.59383296E+03 E0= -.59383296E+03  d E =-.218919E-02
 curvature:  -1.21 expect dE=-0.106E-01 dE for cont linesearch -0.433E-07
 trial: gam= 1.03842 g(F)=  0.726E-02 g(S)=  0.153E-02 ort =-0.373E-04 (trialstep = 0.220E+00)
 search vector abs. value=  0.506E-01
 bond charge predicted
 wavefunctions rotated
       N       E                     dE             d eps       ncg     rms          ort
 gam= 0.000 g(H,U,f)=  0.426E-01 0.111E-02 0.219E-15 ort(H,U,f) = 0.000E+00 0.000E+00 0.000E+00
SDA:   1    -0.593820170533E+03    0.12791E-01    0.00000E+00  1200   0.437E-01 0.000E+00
 gam= 0.000 trial= 0.637  step= 0.516 mean= 0.637
 gam= 0.190 g(H,U,f)=  0.770E-02 0.590E-03 0.527E-17 ort(H,U,f) = 0.664E-03-0.640E-03-0.304E-16
CGA:   2    -0.593831434341E+03   -0.11264E-01   -0.11265E-01  1200   0.829E-02 0.239E-04
 gam= 0.190 trial= 0.631  step= 0.594 mean= 0.631
 gam= 0.195 g(H,U,f)=  0.147E-02 0.148E-03 0.112E-16 ort(H,U,f) = 0.122E-03-0.123E-03 0.189E-18
CGA:   3    -0.593833895811E+03   -0.24615E-02   -0.24615E-02  1200   0.162E-02-0.227E-06
 gam= 0.195 trial= 0.629  step= 0.540 mean= 0.629
 gam= 0.193 g(H,U,f)=  0.284E-03 0.293E-04 0.766E-17 ort(H,U,f) =-0.129E-04 0.108E-04 0.957E-17
CGA:   4    -0.593834333017E+03   -0.43721E-03   -0.43711E-03  1200   0.313E-03-0.214E-05
 gam= 0.193 trial= 0.625  step= 0.635 mean= 0.625
 gam= 0.235 g(H,U,f)=  0.656E-04 0.783E-05 0.240E-17 ort(H,U,f) =-0.168E-04 0.150E-04 0.536E-17
CGA:   5    -0.593834432192E+03   -0.99174E-04   -0.99183E-04  1200   0.735E-04-0.179E-05
 gam= 0.235 trial= 0.625  step= 0.705 mean= 0.625
 gam= 0.326 g(H,U,f)=  0.215E-04 0.246E-05 0.114E-17 ort(H,U,f) =-0.563E-05 0.527E-05 0.260E-17
CGA:   6    -0.593834457911E+03   -0.25720E-04   -0.25734E-04  1200   0.240E-04-0.358E-06
 gam= 0.326 trial= 0.629  step= 0.714 mean= 0.629
 gam= 0.319 g(H,U,f)=  0.702E-05 0.635E-06 0.296E-18 ort(H,U,f) =-0.134E-05 0.121E-05 0.105E-17
CGA:   7    -0.593834466425E+03   -0.85135E-05   -0.85191E-05  1200   0.766E-05-0.129E-06
 gam= 0.319 trial= 0.633  step= 0.667 mean= 0.633
 gam= 0.237 g(H,U,f)=  0.167E-05 0.144E-06 0.787E-19 ort(H,U,f) = 0.118E-06 0.111E-06 0.335E-18
CGA:   8    -0.593834468970E+03   -0.25450E-05   -0.25414E-05  1200   0.181E-05 0.229E-06
 gam= 0.237 trial= 0.635  step= 0.653 mean= 0.635
 final diagonalization
  24 F= -.59383447E+03 E0= -.59383447E+03  d E =-.150438E-02
 trial-energy change:   -0.001504  1 .order   -0.001512   -0.001924   -0.001101
 step:   0.5135(harm=  0.5135)  dis= 0.00770  next Energy=  -593.835212 (dE=-0.225E-02)
 bond charge predicted
 wavefunctions rotated
       N       E                     dE             d eps       ncg     rms          ort
 gam= 0.000 g(H,U,f)=  0.761E-01 0.198E-02 0.725E-17 ort(H,U,f) = 0.000E+00 0.000E+00 0.000E+00
SDA:   1    -0.593809653664E+03    0.24813E-01    0.00000E+00  1200   0.780E-01 0.000E+00
 gam= 0.000 trial= 0.636  step= 0.516 mean= 0.636
 gam= 0.190 g(H,U,f)=  0.137E-01 0.106E-02 0.239E-16 ort(H,U,f) = 0.117E-02-0.114E-02-0.144E-15
CGA:   2    -0.593829769432E+03   -0.20116E-01   -0.20118E-01  1200   0.148E-01 0.323E-04
 gam= 0.190 trial= 0.630  step= 0.594 mean= 0.630
 gam= 0.195 g(H,U,f)=  0.262E-02 0.264E-03 0.578E-16 ort(H,U,f) = 0.220E-03-0.220E-03 0.176E-17
CGA:   3    -0.593834162061E+03   -0.43926E-02   -0.43926E-02  1200   0.289E-02-0.147E-06
 gam= 0.195 trial= 0.628  step= 0.540 mean= 0.628
 gam= 0.193 g(H,U,f)=  0.506E-03 0.527E-04 0.465E-20 ort(H,U,f) =-0.221E-04 0.192E-04-0.392E-20
CGA:   4    -0.593834942494E+03   -0.78043E-03   -0.78030E-03  1200   0.559E-03-0.298E-05
 gam= 0.193 trial= 0.624  step= 0.635 mean= 0.624
 gam= 0.234 g(H,U,f)=  0.117E-03 0.140E-04 0.192E-20 ort(H,U,f) =-0.292E-04 0.268E-04 0.251E-20
CGA:   5    -0.593835119592E+03   -0.17710E-03   -0.17711E-03  1200   0.131E-03-0.239E-05
 gam= 0.234 trial= 0.624  step= 0.707 mean= 0.624
 gam= 0.326 g(H,U,f)=  0.382E-04 0.437E-05 0.128E-22 ort(H,U,f) =-0.987E-05 0.943E-05 0.211E-21
CGA:   6    -0.593835165506E+03   -0.45914E-04   -0.45932E-04  1200   0.426E-04-0.442E-06
 gam= 0.326 trial= 0.628  step= 0.715 mean= 0.628
 gam= 0.319 g(H,U,f)=  0.125E-04 0.112E-05 0.847E-21 ort(H,U,f) =-0.234E-05 0.217E-05 0.685E-21
CGA:   7    -0.593835180658E+03   -0.15152E-04   -0.15159E-04  1200   0.136E-04-0.163E-06
 gam= 0.319 trial= 0.633  step= 0.672 mean= 0.633
 gam= 0.240 g(H,U,f)=  0.299E-05 0.264E-06 0.719E-22 ort(H,U,f) = 0.130E-06 0.189E-06 0.319E-21
CGA:   8    -0.593835185209E+03   -0.45514E-05   -0.45449E-05  1200   0.325E-05 0.319E-06
 gam= 0.240 trial= 0.635  step= 0.656 mean= 0.635
 final diagonalization
  25 F= -.59383519E+03 E0= -.59383519E+03  d E =-.222061E-02
 curvature:  -1.48 expect dE=-0.100E-01 dE for cont linesearch -0.913E-08
 trial: gam= 0.75305 g(F)=  0.516E-02 g(S)=  0.158E-02 ort =-0.176E-04 (trialstep = 0.279E+00)
 search vector abs. value=  0.354E-01
 bond charge predicted
 wavefunctions rotated
       N       E                     dE             d eps       ncg     rms          ort
 gam= 0.000 g(H,U,f)=  0.457E-01 0.135E-02 0.634E-17 ort(H,U,f) = 0.000E+00 0.000E+00 0.000E+00
SDA:   1    -0.593821910232E+03    0.13270E-01    0.00000E+00  1200   0.470E-01 0.000E+00
 gam= 0.000 trial= 0.636  step= 0.500 mean= 0.636
 gam= 0.177 g(H,U,f)=  0.757E-02 0.723E-03 0.524E-19 ort(H,U,f) = 0.725E-03-0.780E-03-0.508E-18
CGA:   2    -0.593833664628E+03   -0.11754E-01   -0.11751E-01  1200   0.830E-02-0.552E-04
 gam= 0.177 trial= 0.629  step= 0.592 mean= 0.629
 gam= 0.200 g(H,U,f)=  0.150E-02 0.167E-03 0.570E-20 ort(H,U,f) = 0.164E-03-0.175E-03-0.106E-19
CGA:   3    -0.593836115976E+03   -0.24513E-02   -0.24511E-02  1200   0.166E-02-0.109E-04
 gam= 0.200 trial= 0.627  step= 0.543 mean= 0.627
 gam= 0.195 g(H,U,f)=  0.290E-03 0.345E-04 0.160E-19 ort(H,U,f) =-0.517E-05 0.108E-04 0.742E-20
CGA:   4    -0.593836566660E+03   -0.45068E-03   -0.45092E-03  1200   0.324E-03 0.559E-05
 gam= 0.195 trial= 0.623  step= 0.653 mean= 0.623
 gam= 0.250 g(H,U,f)=  0.722E-04 0.867E-05 0.650E-20 ort(H,U,f) =-0.132E-04 0.158E-04 0.115E-19
CGA:   5    -0.593836672917E+03   -0.10626E-03   -0.10622E-03  1200   0.809E-04 0.263E-05
 gam= 0.250 trial= 0.624  step= 0.720 mean= 0.624
 gam= 0.344 g(H,U,f)=  0.250E-04 0.285E-05 0.731E-21 ort(H,U,f) =-0.613E-05 0.563E-05 0.339E-20
CGA:   6    -0.593836702279E+03   -0.29362E-04   -0.29385E-04  1200   0.278E-04-0.497E-06
 gam= 0.344 trial= 0.629  step= 0.696 mean= 0.629
 gam= 0.299 g(H,U,f)=  0.772E-05 0.597E-06 0.111E-20 ort(H,U,f) =-0.980E-06 0.133E-05 0.247E-20
CGA:   7    -0.593836711906E+03   -0.96275E-05   -0.96155E-05  1200   0.831E-05 0.354E-06
 gam= 0.299 trial= 0.632  step= 0.634 mean= 0.632
 gam= 0.227 g(H,U,f)=  0.174E-05 0.143E-06 0.166E-21 ort(H,U,f) = 0.571E-06 0.139E-06 0.742E-21
CGA:   8    -0.593836714575E+03   -0.26689E-05   -0.26684E-05  1200   0.188E-05 0.709E-06
 gam= 0.227 trial= 0.633  step= 0.669 mean= 0.633
 final diagonalization
  26 F= -.59383671E+03 E0= -.59383671E+03  d E =-.152937E-02
 trial-energy change:   -0.001529  1 .order   -0.001540   -0.001873   -0.001207
 step:   0.7835(harm=  0.7835)  dis= 0.00994  next Energy=  -593.837819 (dE=-0.263E-02)
 bond charge predicted
 wavefunctions rotated
       N       E                     dE             d eps       ncg     rms          ort
 gam= 0.000 g(H,U,f)=  0.150E+00 0.440E-02 0.467E-16 ort(H,U,f) = 0.000E+00 0.000E+00 0.000E+00
SDA:   1    -0.593789180721E+03    0.47531E-01    0.00000E+00  1200   0.154E+00 0.000E+00
 gam= 0.000 trial= 0.634  step= 0.500 mean= 0.634
 gam= 0.176 g(H,U,f)=  0.248E-01 0.238E-02 0.299E-18 ort(H,U,f) = 0.244E-02-0.254E-02-0.296E-17
CGA:   2    -0.593827764989E+03   -0.38584E-01   -0.38579E-01  1200   0.272E-01-0.969E-04
 gam= 0.176 trial= 0.628  step= 0.591 mean= 0.628
 gam= 0.200 g(H,U,f)=  0.491E-02 0.547E-03 0.287E-19 ort(H,U,f) = 0.556E-03-0.575E-03-0.521E-19
CGA:   3    -0.593835809409E+03   -0.80444E-02   -0.80441E-02  1200   0.546E-02-0.198E-04
 gam= 0.200 trial= 0.626  step= 0.544 mean= 0.626
 gam= 0.196 g(H,U,f)=  0.956E-03 0.114E-03 0.106E-18 ort(H,U,f) =-0.252E-04 0.350E-04 0.511E-19
CGA:   4    -0.593837292708E+03   -0.14833E-02   -0.14837E-02  1200   0.107E-02 0.977E-05
 gam= 0.196 trial= 0.622  step= 0.654 mean= 0.622
 gam= 0.249 g(H,U,f)=  0.238E-03 0.285E-04 0.435E-19 ort(H,U,f) =-0.468E-04 0.516E-04 0.777E-19
CGA:   5    -0.593837643450E+03   -0.35074E-03   -0.35066E-03  1200   0.267E-03 0.483E-05
 gam= 0.249 trial= 0.623  step= 0.717 mean= 0.623
 gam= 0.339 g(H,U,f)=  0.811E-04 0.930E-05 0.525E-20 ort(H,U,f) =-0.196E-04 0.187E-04 0.245E-19
CGA:   6    -0.593837739519E+03   -0.96069E-04   -0.96110E-04  1200   0.904E-04-0.884E-06
 gam= 0.339 trial= 0.628  step= 0.703 mean= 0.628
 gam= 0.303 g(H,U,f)=  0.255E-04 0.196E-05 0.823E-20 ort(H,U,f) =-0.378E-05 0.439E-05 0.183E-19
CGA:   7    -0.593837771218E+03   -0.31699E-04   -0.31676E-04  1200   0.274E-04 0.609E-06
 gam= 0.303 trial= 0.632  step= 0.655 mean= 0.632
 gam= 0.235 g(H,U,f)=  0.593E-05 0.523E-06 0.107E-20 ort(H,U,f) = 0.992E-06 0.355E-06 0.520E-20
CGA:   8    -0.593837780274E+03   -0.90565E-05   -0.90412E-05  1200   0.645E-05 0.135E-05
 gam= 0.235 trial= 0.633  step= 0.669 mean= 0.633
 gam= 0.247 g(H,U,f)=  0.149E-05 0.997E-07 0.307E-21 ort(H,U,f) = 0.181E-06-0.848E-08 0.128E-20
CGA:   9    -0.593837782542E+03   -0.22679E-05   -0.22651E-05  1200   0.159E-05 0.173E-06
 gam= 0.247 trial= 0.635  step= 0.952 mean= 0.635
 final diagonalization
  27 F= -.59383778E+03 E0= -.59383778E+03  d E =-.259733E-02
 curvature:  -2.06 expect dE=-0.141E-01 dE for cont linesearch -0.410E-06
 trial: gam= 1.01941 g(F)=  0.667E-02 g(S)=  0.188E-03 ort =-0.839E-04 (trialstep = 0.309E+00)
 search vector abs. value=  0.435E-01
 bond charge predicted
 wavefunctions rotated
       N       E                     dE             d eps       ncg     rms          ort
 gam= 0.000 g(H,U,f)=  0.795E-01 0.203E-02 0.715E-16 ort(H,U,f) = 0.000E+00 0.000E+00 0.000E+00
SDA:   1    -0.593813049818E+03    0.24730E-01    0.00000E+00  1200   0.815E-01 0.000E+00
 gam= 0.000 trial= 0.651  step= 0.503 mean= 0.651
 gam= 0.188 g(H,U,f)=  0.141E-01 0.124E-02 0.447E-19 ort(H,U,f) = 0.110E-02-0.118E-02-0.158E-17
CGA:   2    -0.593833555298E+03   -0.20505E-01   -0.20500E-01  1200   0.153E-01-0.793E-04
 gam= 0.188 trial= 0.643  step= 0.585 mean= 0.643
 gam= 0.204 g(H,U,f)=  0.288E-02 0.251E-03 0.918E-23 ort(H,U,f) = 0.230E-03-0.237E-03-0.302E-20
CGA:   3    -0.593838030607E+03   -0.44753E-02   -0.44751E-02  1200   0.313E-02-0.672E-05
 gam= 0.204 trial= 0.640  step= 0.533 mean= 0.640
 gam= 0.194 g(H,U,f)=  0.559E-03 0.466E-04 0.789E-20 ort(H,U,f) =-0.304E-04 0.392E-04-0.194E-19
CGA:   4    -0.593838863533E+03   -0.83293E-03   -0.83340E-03  1200   0.605E-03 0.880E-05
 gam= 0.194 trial= 0.635  step= 0.625 mean= 0.635
 gam= 0.250 g(H,U,f)=  0.135E-03 0.163E-04 0.111E-19 ort(H,U,f) =-0.249E-04 0.303E-04 0.494E-20
CGA:   5    -0.593839053110E+03   -0.18958E-03   -0.18960E-03  1200   0.151E-03 0.546E-05
 gam= 0.250 trial= 0.634  step= 0.677 mean= 0.634
 gam= 0.333 g(H,U,f)=  0.438E-04 0.663E-05 0.164E-21 ort(H,U,f) =-0.983E-05 0.927E-05-0.157E-20
CGA:   6    -0.593839104695E+03   -0.51585E-04   -0.51597E-04  1200   0.504E-04-0.557E-06
 gam= 0.333 trial= 0.637  step= 0.707 mean= 0.637
 gam= 0.312 g(H,U,f)=  0.142E-04 0.157E-05 0.233E-20 ort(H,U,f) =-0.200E-05 0.239E-05 0.144E-20
CGA:   7    -0.593839122449E+03   -0.17754E-04   -0.17740E-04  1200   0.157E-04 0.388E-06
 gam= 0.312 trial= 0.640  step= 0.651 mean= 0.640
 gam= 0.243 g(H,U,f)=  0.358E-05 0.254E-06 0.631E-21 ort(H,U,f) = 0.728E-06 0.267E-06 0.148E-20
CGA:   8    -0.593839127618E+03   -0.51690E-05   -0.51635E-05  1200   0.383E-05 0.995E-06
 gam= 0.243 trial= 0.641  step= 0.677 mean= 0.641
 gam= 0.228 g(H,U,f)=  0.845E-06 0.268E-07 0.156E-21 ort(H,U,f) = 0.140E-06 0.503E-07 0.506E-21
CGA:   9    -0.593839129000E+03   -0.13821E-05   -0.13789E-05  1200   0.872E-06 0.190E-06
 gam= 0.228 trial= 0.642  step= 1.140 mean= 0.642
 final diagonalization
  28 F= -.59383913E+03 E0= -.59383913E+03  d E =-.134646E-02
 trial-energy change:   -0.001346  1 .order   -0.001342   -0.002093   -0.000592
 step:   0.4308(harm=  0.4308)  dis= 0.00599  next Energy=  -593.839241 (dE=-0.146E-02)
 bond charge predicted
 wavefunctions rotated
       N       E                     dE             d eps       ncg     rms          ort
 gam= 0.000 g(H,U,f)=  0.123E-01 0.318E-03 0.176E-16 ort(H,U,f) = 0.000E+00 0.000E+00 0.000E+00
SDA:   1    -0.593835202784E+03    0.39248E-02    0.00000E+00  1200   0.127E-01 0.000E+00
 gam= 0.000 trial= 0.667  step= 0.503 mean= 0.667
 gam= 0.189 g(H,U,f)=  0.220E-02 0.192E-03 0.113E-19 ort(H,U,f) = 0.155E-03-0.186E-03-0.424E-18
CGA:   2    -0.593838390997E+03   -0.31882E-02   -0.31857E-02  1200   0.239E-02-0.313E-04
 gam= 0.189 trial= 0.659  step= 0.584 mean= 0.659
 gam= 0.205 g(H,U,f)=  0.450E-03 0.390E-04 0.157E-23 ort(H,U,f) = 0.341E-04-0.363E-04-0.761E-21
CGA:   3    -0.593839086541E+03   -0.69554E-03   -0.69546E-03  1200   0.489E-03-0.225E-05
 gam= 0.205 trial= 0.655  step= 0.529 mean= 0.655
 gam= 0.194 g(H,U,f)=  0.879E-04 0.703E-05 0.169E-20 ort(H,U,f) =-0.300E-05 0.642E-05-0.530E-20
CGA:   4    -0.593839215563E+03   -0.12902E-03   -0.12924E-03  1200   0.949E-04 0.342E-05
 gam= 0.194 trial= 0.649  step= 0.612 mean= 0.649
 gam= 0.248 g(H,U,f)=  0.209E-04 0.266E-05 0.308E-20 ort(H,U,f) =-0.278E-05 0.484E-05 0.911E-21
CGA:   5    -0.593839244784E+03   -0.29221E-04   -0.29259E-04  1200   0.236E-04 0.206E-05
 gam= 0.248 trial= 0.647  step= 0.677 mean= 0.647
 gam= 0.345 g(H,U,f)=  0.700E-05 0.113E-05 0.530E-22 ort(H,U,f) =-0.158E-05 0.141E-05-0.448E-21
CGA:   6    -0.593839252939E+03   -0.81546E-05   -0.81573E-05  1200   0.813E-05-0.173E-06
 gam= 0.345 trial= 0.649  step= 0.695 mean= 0.649
 gam= 0.306 g(H,U,f)=  0.223E-05 0.251E-06 0.587E-21 ort(H,U,f) =-0.242E-06 0.391E-06 0.352E-21
CGA:   7    -0.593839255744E+03   -0.28049E-05   -0.28012E-05  1200   0.248E-05 0.149E-06
 gam= 0.306 trial= 0.651  step= 0.604 mean= 0.651
 gam= 0.229 g(H,U,f)=  0.538E-06 0.298E-07 0.232E-21 ort(H,U,f) = 0.284E-06 0.739E-07 0.446E-21
CGA:   8    -0.593839256499E+03   -0.75534E-06   -0.76343E-06  1200   0.568E-06 0.358E-06
 gam= 0.229 trial= 0.649  step= 0.644 mean= 0.649
 final diagonalization
  29 F= -.59383926E+03 E0= -.59383926E+03  d E =-.147396E-02
 curvature:  -1.38 expect dE=-0.118E-01 dE for cont linesearch -0.288E-07
 trial: gam= 1.23317 g(F)=  0.841E-02 g(S)=  0.141E-03 ort = 0.301E-04 (trialstep = 0.194E+00)
 search vector abs. value=  0.747E-01
 bond charge predicted
 wavefunctions rotated
       N       E                     dE             d eps       ncg     rms          ort
 gam= 0.000 g(H,U,f)=  0.518E-01 0.136E-02 0.215E-15 ort(H,U,f) = 0.000E+00 0.000E+00 0.000E+00
SDA:   1    -0.593824252336E+03    0.15003E-01    0.00000E+00  1200   0.532E-01 0.000E+00
 gam= 0.000 trial= 0.648  step= 0.493 mean= 0.648
 gam= 0.176 g(H,U,f)=  0.853E-02 0.810E-03 0.120E-17 ort(H,U,f) = 0.730E-03-0.797E-03-0.152E-16
CGA:   2    -0.593837378929E+03   -0.13127E-01   -0.13122E-01  1200   0.934E-02-0.665E-04
 gam= 0.176 trial= 0.641  step= 0.576 mean= 0.641
 gam= 0.202 g(H,U,f)=  0.174E-02 0.148E-03 0.212E-21 ort(H,U,f) = 0.148E-03-0.150E-03-0.160E-19
CGA:   3    -0.593840066224E+03   -0.26873E-02   -0.26872E-02  1200   0.189E-02-0.146E-05
 gam= 0.202 trial= 0.637  step= 0.536 mean= 0.637
 gam= 0.201 g(H,U,f)=  0.348E-03 0.312E-04 0.767E-19 ort(H,U,f) =-0.200E-04 0.269E-04-0.594E-19
CGA:   4    -0.593840572626E+03   -0.50640E-03   -0.50675E-03  1200   0.379E-03 0.685E-05
 gam= 0.201 trial= 0.632  step= 0.631 mean= 0.632
 gam= 0.264 g(H,U,f)=  0.884E-04 0.115E-04 0.141E-18 ort(H,U,f) =-0.160E-04 0.208E-04 0.864E-19
CGA:   5    -0.593840692637E+03   -0.12001E-03   -0.12002E-03  1200   0.100E-03 0.476E-05
 gam= 0.264 trial= 0.632  step= 0.684 mean= 0.632
 gam= 0.335 g(H,U,f)=  0.291E-04 0.437E-05 0.478E-24 ort(H,U,f) =-0.675E-05 0.623E-05 0.310E-21
CGA:   6    -0.593840727224E+03   -0.34586E-04   -0.34600E-04  1200   0.335E-04-0.521E-06
 gam= 0.335 trial= 0.635  step= 0.699 mean= 0.635
 gam= 0.300 g(H,U,f)=  0.903E-05 0.993E-06 0.391E-20 ort(H,U,f) =-0.116E-05 0.152E-05 0.976E-20
CGA:   7    -0.593840738864E+03   -0.11640E-04   -0.11629E-04  1200   0.100E-04 0.360E-06
 gam= 0.300 trial= 0.638  step= 0.626 mean= 0.638
 gam= 0.235 g(H,U,f)=  0.219E-05 0.162E-06 0.392E-20 ort(H,U,f) = 0.584E-06 0.192E-06 0.689E-20
CGA:   8    -0.593840742033E+03   -0.31697E-05   -0.31737E-05  1200   0.235E-05 0.776E-06
 gam= 0.235 trial= 0.637  step= 0.670 mean= 0.637
 final diagonalization
  30 F= -.59384074E+03 E0= -.59384074E+03  d E =-.148553E-02
 ZBRENT: can't locate minimum, use default step
 trial-energy change:   -0.001486  1 .order   -0.001489   -0.001665   -0.001313
 step:   0.7758(harm=  0.9153)  dis= 0.01399  next Energy=  -593.843186 (dE=-0.393E-02)
 bond charge predicted
 wavefunctions rotated
       N       E                     dE             d eps       ncg     rms          ort
 gam= 0.000 g(H,U,f)=  0.466E+00 0.123E-01 0.791E-14 ort(H,U,f) = 0.000E+00 0.000E+00 0.000E+00
SDA:   1    -0.593694850058E+03    0.14589E+00    0.00000E+00  1200   0.478E+00 0.000E+00
 gam= 0.000 trial= 0.639  step= 0.493 mean= 0.639
 gam= 0.176 g(H,U,f)=  0.767E-01 0.736E-02 0.582E-16 ort(H,U,f) = 0.703E-02-0.721E-02-0.661E-15
CGA:   2    -0.593812724046E+03   -0.11787E+00   -0.11788E+00  1200   0.840E-01-0.177E-03
 gam= 0.176 trial= 0.632  step= 0.576 mean= 0.632
 gam= 0.203 g(H,U,f)=  0.157E-01 0.134E-02 0.187E-19 ort(H,U,f) = 0.136E-02-0.137E-02 0.492E-18
CGA:   3    -0.593836899522E+03   -0.24175E-01   -0.24175E-01  1200   0.170E-01-0.505E-05
 gam= 0.203 trial= 0.629  step= 0.537 mean= 0.629
 gam= 0.201 g(H,U,f)=  0.315E-02 0.282E-03 0.204E-17 ort(H,U,f) =-0.218E-03 0.239E-03-0.121E-17
CGA:   4    -0.593841476845E+03   -0.45773E-02   -0.45783E-02  1200   0.343E-02 0.204E-04
 gam= 0.201 trial= 0.624  step= 0.634 mean= 0.624
 gam= 0.266 g(H,U,f)=  0.809E-03 0.103E-03 0.322E-17 ort(H,U,f) =-0.171E-03 0.186E-03 0.201E-17
CGA:   5    -0.593842565122E+03   -0.10883E-02   -0.10882E-02  1200   0.912E-03 0.153E-04
 gam= 0.266 trial= 0.625  step= 0.676 mean= 0.625
 gam= 0.327 g(H,U,f)=  0.260E-03 0.386E-04 0.157E-21 ort(H,U,f) =-0.584E-04 0.570E-04-0.262E-19
CGA:   6    -0.593842874984E+03   -0.30986E-03   -0.30990E-03  1200   0.299E-03-0.142E-05
 gam= 0.327 trial= 0.627  step= 0.707 mean= 0.627
 gam= 0.306 g(H,U,f)=  0.822E-04 0.906E-05 0.658E-19 ort(H,U,f) =-0.125E-04 0.134E-04 0.177E-18
CGA:   7    -0.593842980436E+03   -0.10545E-03   -0.10542E-03  1200   0.913E-04 0.883E-06
 gam= 0.306 trial= 0.631  step= 0.655 mean= 0.631
[...]
 gam= 0.231 trial= 0.633  step= 0.671 mean= 0.633
 gam= 0.315 g(H,U,f)=  0.446E-06 0.522E-07 0.170E-23 ort(H,U,f) =-0.756E-07 0.849E-07 0.803E-23
CGA:   6    -0.593899664461E+03   -0.53180E-06   -0.53161E-06  1200   0.498E-06 0.926E-08
 gam= 0.315 trial= 0.635  step= 0.723 mean= 0.635
 gam= 0.322 g(H,U,f)=  0.145E-06 0.154E-07 0.257E-24 ort(H,U,f) =-0.234E-07 0.247E-07 0.164E-23
CGA:   7    -0.593899664642E+03   -0.18105E-06   -0.18124E-06  1200   0.161E-06 0.134E-08
 gam= 0.322 trial= 0.640  step= 0.729 mean= 0.640
 gam= 0.278 g(H,U,f)=  0.424E-07 0.221E-08 0.495E-24 ort(H,U,f) =-0.580E-08 0.182E-08 0.109E-23
CGA:   8    -0.593899664701E+03   -0.58411E-07   -0.58720E-07  1200   0.447E-07-0.398E-08
 gam= 0.278 trial= 0.644  step= 0.728 mean= 0.644
 final diagonalization
 416 F= -.59389966E+03 E0= -.59389966E+03  d E =-.156415E-04
 trial-energy change:   -0.000016  1 .order   -0.000015   -0.000018   -0.000013
 step:   0.5992(harm=  0.5992)  dis= 0.00183  next Energy=  -593.899680 (dE=-0.307E-04)
 bond charge predicted
 wavefunctions rotated
       N       E                     dE             d eps       ncg     rms          ort
 gam= 0.000 g(H,U,f)=  0.473E-02 0.448E-04 0.123E-22 ort(H,U,f) = 0.000E+00 0.000E+00 0.000E+00
SDA:   1    -0.593897674406E+03    0.19902E-02    0.00000E+00  1200   0.477E-02 0.000E+00
 gam= 0.000 trial= 0.648  step= 0.671 mean= 0.648
 gam= 0.269 g(H,U,f)=  0.124E-02 0.448E-04 0.683E-20 ort(H,U,f) = 0.413E-04-0.366E-04-0.296E-21
CGA:   2    -0.593899276875E+03   -0.16025E-02   -0.16024E-02  1200   0.128E-02 0.473E-05
 gam= 0.269 trial= 0.649  step= 0.509 mean= 0.649
 gam= 0.178 g(H,U,f)=  0.221E-03 0.804E-05 0.160E-21 ort(H,U,f) = 0.512E-05-0.597E-05 0.100E-20
CGA:   3    -0.593899603851E+03   -0.32698E-03   -0.32692E-03  1200   0.229E-03-0.856E-06
 gam= 0.178 trial= 0.642  step= 0.518 mean= 0.642
 gam= 0.180 g(H,U,f)=  0.392E-04 0.209E-05 0.203E-22 ort(H,U,f) =-0.285E-05 0.227E-05 0.121E-21
CGA:   4    -0.593899663130E+03   -0.59280E-04   -0.59245E-04  1200   0.413E-04-0.573E-06
 gam= 0.180 trial= 0.636  step= 0.593 mean= 0.636
 gam= 0.232 g(H,U,f)=  0.866E-05 0.913E-06 0.175E-21 ort(H,U,f) =-0.149E-05 0.155E-05 0.123E-21
CGA:   5    -0.593899675336E+03   -0.12206E-04   -0.12207E-04  1200   0.957E-05 0.556E-07
 gam= 0.232 trial= 0.634  step= 0.669 mean= 0.634
 gam= 0.315 g(H,U,f)=  0.269E-05 0.318E-06 0.109E-22 ort(H,U,f) =-0.482E-06 0.509E-06 0.505E-22
CGA:   6    -0.593899678545E+03   -0.32088E-05   -0.32084E-05  1200   0.301E-05 0.269E-07
 gam= 0.315 trial= 0.636  step= 0.720 mean= 0.636
 gam= 0.320 g(H,U,f)=  0.870E-06 0.930E-07 0.163E-23 ort(H,U,f) =-0.144E-06 0.151E-06 0.104E-22
CGA:   7    -0.593899679634E+03   -0.10884E-05   -0.10880E-05  1200   0.963E-06 0.669E-08
 gam= 0.320 trial= 0.640  step= 0.718 mean= 0.640
 gam= 0.269 g(H,U,f)=  0.247E-06 0.125E-07 0.317E-23 ort(H,U,f) =-0.224E-07 0.147E-07 0.687E-23
CGA:   8    -0.593899679980E+03   -0.34653E-06   -0.34650E-06  1200   0.259E-06-0.763E-08
 gam= 0.269 trial= 0.644  step= 0.697 mean= 0.644
 final diagonalization
 417 F= -.59389968E+03 E0= -.59389968E+03  d E =-.309208E-04
 curvature:  -5.87 expect dE=-0.521E-03 dE for cont linesearch -0.148E-08
 trial: gam= 0.88538 g(F)=  0.875E-04 g(S)=  0.136E-05 ort = 0.713E-06 (trialstep = 0.258E+00)
 search vector abs. value=  0.166E-02
 bond charge predicted
 wavefunctions rotated
       N       E                     dE             d eps       ncg     rms          ort
 gam= 0.000 g(H,U,f)=  0.141E-02 0.136E-04 0.502E-22 ort(H,U,f) = 0.000E+00 0.000E+00 0.000E+00
SDA:   1    -0.593899097172E+03    0.58246E-03    0.00000E+00  1200   0.142E-02 0.000E+00
 gam= 0.000 trial= 0.646  step= 0.677 mean= 0.646
 gam= 0.268 g(H,U,f)=  0.367E-03 0.131E-04 0.609E-20 ort(H,U,f) = 0.147E-04-0.110E-04-0.566E-21
CGA:   2    -0.593899577738E+03   -0.48057E-03   -0.48051E-03  1200   0.380E-03 0.365E-05
 gam= 0.268 trial= 0.648  step= 0.510 mean= 0.648
 gam= 0.175 g(H,U,f)=  0.639E-04 0.266E-05 0.303E-21 ort(H,U,f) = 0.145E-05-0.202E-05 0.129E-20
CGA:   3    -0.593899675047E+03   -0.97309E-04   -0.97269E-04  1200   0.665E-04-0.578E-06
 gam= 0.175 trial= 0.641  step= 0.521 mean= 0.641
 gam= 0.181 g(H,U,f)=  0.114E-04 0.600E-06 0.968E-22 ort(H,U,f) =-0.121E-05 0.617E-06 0.299E-21
CGA:   4    -0.593899692385E+03   -0.17339E-04   -0.17303E-04  1200   0.120E-04-0.594E-06
 gam= 0.181 trial= 0.635  step= 0.586 mean= 0.635
 gam= 0.227 g(H,U,f)=  0.246E-05 0.261E-06 0.172E-21 ort(H,U,f) =-0.388E-06 0.447E-06 0.200E-21
CGA:   5    -0.593899695873E+03   -0.34882E-05   -0.34896E-05  1200   0.272E-05 0.588E-07
 gam= 0.227 trial= 0.633  step= 0.674 mean= 0.633
 gam= 0.319 g(H,U,f)=  0.772E-06 0.975E-07 0.240E-22 ort(H,U,f) =-0.149E-06 0.150E-06 0.808E-22
CGA:   6    -0.593899696796E+03   -0.92229E-06   -0.92234E-06  1200   0.870E-06 0.135E-08
 gam= 0.319 trial= 0.635  step= 0.745 mean= 0.635
 gam= 0.347 g(H,U,f)=  0.273E-06 0.292E-07 0.429E-23 ort(H,U,f) =-0.673E-07 0.374E-07 0.210E-22
CGA:   7    -0.593899697119E+03   -0.32288E-06   -0.32426E-06  1200   0.302E-06-0.298E-07
 gam= 0.347 trial= 0.640  step= 0.706 mean= 0.640
 gam= 0.262 g(H,U,f)=  0.748E-07 0.422E-08 0.159E-23 ort(H,U,f) =-0.967E-08 0.248E-08 0.704E-23
CGA:   8    -0.593899697221E+03   -0.10279E-06   -0.10300E-06  1200   0.791E-07-0.719E-08
 gam= 0.262 trial= 0.644  step= 0.694 mean= 0.644
 final diagonalization
 418 F= -.59389970E+03 E0= -.59389970E+03  d E =-.172411E-04
 trial-energy change:   -0.000017  1 .order   -0.000017   -0.000023   -0.000011
 step:   0.5084(harm=  0.5084)  dis= 0.00142  next Energy=  -593.899703 (dE=-0.227E-04)
 bond charge predicted
 wavefunctions rotated
       N       E                     dE             d eps       ncg     rms          ort
 gam= 0.000 g(H,U,f)=  0.132E-02 0.126E-04 0.532E-22 ort(H,U,f) = 0.000E+00 0.000E+00 0.000E+00
SDA:   1    -0.593899141315E+03    0.55580E-03    0.00000E+00  1200   0.133E-02 0.000E+00
 gam= 0.000 trial= 0.646  step= 0.677 mean= 0.646
 gam= 0.268 g(H,U,f)=  0.344E-03 0.122E-04 0.604E-20 ort(H,U,f) = 0.137E-04-0.102E-04-0.579E-21
CGA:   2    -0.593899591187E+03   -0.44987E-03   -0.44982E-03  1200   0.356E-03 0.353E-05
 gam= 0.268 trial= 0.648  step= 0.510 mean= 0.648
 gam= 0.175 g(H,U,f)=  0.599E-04 0.248E-05 0.299E-21 ort(H,U,f) = 0.132E-05-0.188E-05 0.128E-20
CGA:   3    -0.593899682265E+03   -0.91077E-04   -0.91039E-04  1200   0.623E-04-0.556E-06
 gam= 0.175 trial= 0.641  step= 0.521 mean= 0.641
 gam= 0.181 g(H,U,f)=  0.107E-04 0.562E-06 0.954E-22 ort(H,U,f) =-0.115E-05 0.580E-06 0.296E-21
CGA:   4    -0.593899698499E+03   -0.16235E-04   -0.16200E-04  1200   0.113E-04-0.574E-06
 gam= 0.181 trial= 0.635  step= 0.584 mean= 0.635
 gam= 0.225 g(H,U,f)=  0.230E-05 0.245E-06 0.170E-21 ort(H,U,f) =-0.363E-06 0.419E-06 0.198E-21
CGA:   5    -0.593899701769E+03   -0.32701E-05   -0.32718E-05  1200   0.255E-05 0.561E-07
 gam= 0.225 trial= 0.632  step= 0.672 mean= 0.632
 gam= 0.318 g(H,U,f)=  0.718E-06 0.919E-07 0.243E-22 ort(H,U,f) =-0.138E-06 0.141E-06 0.809E-22
CGA:   6    -0.593899702630E+03   -0.86024E-06   -0.85988E-06  1200   0.810E-06 0.358E-08
 gam= 0.318 trial= 0.634  step= 0.746 mean= 0.634
 gam= 0.348 g(H,U,f)=  0.254E-06 0.275E-07 0.434E-23 ort(H,U,f) =-0.646E-07 0.356E-07 0.211E-22
CGA:   7    -0.593899702930E+03   -0.30076E-06   -0.30256E-06  1200   0.282E-06-0.290E-07
 gam= 0.348 trial= 0.640  step= 0.712 mean= 0.640
 gam= 0.265 g(H,U,f)=  0.707E-07 0.406E-08 0.161E-23 ort(H,U,f) =-0.114E-07 0.219E-08 0.709E-23
CGA:   8    -0.593899703027E+03   -0.96366E-07   -0.96781E-07  1200   0.748E-07-0.920E-08
 gam= 0.265 trial= 0.643  step= 0.674 mean= 0.643
 final diagonalization
 419 F= -.59389970E+03 E0= -.59389970E+03  d E =-.230466E-04
 curvature:  -4.73 expect dE=-0.596E-03 dE for cont linesearch -0.458E-09
 trial: gam= 1.41049 g(F)=  0.125E-03 g(S)=  0.845E-06 ort = 0.401E-06 (trialstep = 0.149E+00)
 search vector abs. value=  0.344E-02
 bond charge predicted
 wavefunctions rotated
       N       E                     dE             d eps       ncg     rms          ort
 gam= 0.000 g(H,U,f)=  0.973E-03 0.911E-05 0.160E-22 ort(H,U,f) = 0.000E+00 0.000E+00 0.000E+00
SDA:   1    -0.593899303400E+03    0.39953E-03    0.00000E+00  1200   0.982E-03 0.000E+00
 gam= 0.000 trial= 0.645  step= 0.679 mean= 0.645
 gam= 0.266 g(H,U,f)=  0.253E-03 0.817E-05 0.276E-20 ort(H,U,f) = 0.101E-04-0.698E-05-0.210E-21
CGA:   2    -0.593899637054E+03   -0.33365E-03   -0.33360E-03  1200   0.261E-03 0.314E-05
 gam= 0.266 trial= 0.647  step= 0.511 mean= 0.647
 gam= 0.175 g(H,U,f)=  0.441E-04 0.171E-05 0.596E-22 ort(H,U,f) = 0.572E-06-0.129E-05 0.394E-21
CGA:   3    -0.593899704087E+03   -0.67033E-04   -0.66985E-04  1200   0.458E-04-0.716E-06
 gam= 0.175 trial= 0.640  step= 0.517 mean= 0.640
 gam= 0.179 g(H,U,f)=  0.781E-05 0.393E-06 0.548E-23 ort(H,U,f) =-0.692E-06 0.390E-06 0.391E-22
CGA:   4    -0.593899715923E+03   -0.11837E-04   -0.11818E-04  1200   0.820E-05-0.303E-06
 gam= 0.179 trial= 0.634  step= 0.580 mean= 0.634
 gam= 0.222 g(H,U,f)=  0.164E-05 0.173E-06 0.750E-22 ort(H,U,f) =-0.230E-06 0.290E-06 0.462E-22
CGA:   5    -0.593899718285E+03   -0.23614E-05   -0.23631E-05  1200   0.182E-05 0.602E-07
 gam= 0.222 trial= 0.631  step= 0.664 mean= 0.631
 gam= 0.310 g(H,U,f)=  0.497E-06 0.655E-07 0.476E-23 ort(H,U,f) =-0.807E-07 0.102E-06 0.215E-22
CGA:   6    -0.593899718892E+03   -0.60767E-06   -0.60745E-06  1200   0.563E-06 0.210E-07
 gam= 0.310 trial= 0.633  step= 0.742 mean= 0.633
 gam= 0.347 g(H,U,f)=  0.176E-06 0.198E-07 0.615E-24 ort(H,U,f) =-0.389E-07 0.273E-07 0.410E-23
CGA:   7    -0.593899719103E+03   -0.21063E-06   -0.21128E-06  1200   0.195E-06-0.116E-07
 gam= 0.347 trial= 0.638  step= 0.709 mean= 0.638
 gam= 0.265 g(H,U,f)=  0.487E-07 0.305E-08 0.126E-23 ort(H,U,f) =-0.615E-08 0.312E-08 0.292E-23
CGA:   8    -0.593899719171E+03   -0.67562E-07   -0.67859E-07  1200   0.518E-07-0.303E-08
 gam= 0.265 trial= 0.642  step= 0.695 mean= 0.642
 final diagonalization
 420 F= -.59389972E+03 E0= -.59389972E+03  d E =-.161438E-04
 trial-energy change:   -0.000016  1 .order   -0.000016   -0.000019   -0.000014
 step:   0.5300(harm=  0.5300)  dis= 0.00212  next Energy=  -593.899737 (dE=-0.335E-04)
 bond charge predicted
 wavefunctions rotated
       N       E                     dE             d eps       ncg     rms          ort
 gam= 0.000 g(H,U,f)=  0.633E-02 0.588E-04 0.117E-21 ort(H,U,f) = 0.000E+00 0.000E+00 0.000E+00
SDA:   1    -0.593897029050E+03    0.26901E-02    0.00000E+00  1200   0.639E-02 0.000E+00
 gam= 0.000 trial= 0.644  step= 0.681 mean= 0.644
 gam= 0.267 g(H,U,f)=  0.165E-02 0.532E-04 0.176E-19 ort(H,U,f) = 0.533E-04-0.451E-04-0.145E-20
CGA:   2    -0.593899203147E+03   -0.21741E-02   -0.21739E-02  1200   0.171E-02 0.815E-05
 gam= 0.267 trial= 0.646  step= 0.509 mean= 0.646
 gam= 0.174 g(H,U,f)=  0.287E-03 0.110E-04 0.405E-21 ort(H,U,f) = 0.631E-05-0.815E-05 0.257E-20
CGA:   3    -0.593899638211E+03   -0.43506E-03   -0.43494E-03  1200   0.298E-03-0.184E-05
 gam= 0.174 trial= 0.639  step= 0.515 mean= 0.639
 gam= 0.179 g(H,U,f)=  0.507E-04 0.253E-05 0.361E-22 ort(H,U,f) =-0.339E-05 0.259E-05 0.256E-21
CGA:   4    -0.593899714858E+03   -0.76647E-04   -0.76597E-04  1200   0.532E-04-0.794E-06
 gam= 0.179 trial= 0.633  step= 0.583 mean= 0.633
 gam= 0.224 g(H,U,f)=  0.108E-04 0.113E-05 0.485E-21 ort(H,U,f) =-0.172E-05 0.188E-05 0.301E-21
CGA:   5    -0.593899730342E+03   -0.15484E-04   -0.15488E-04  1200   0.119E-04 0.157E-06
 gam= 0.224 trial= 0.631  step= 0.665 mean= 0.631
 gam= 0.310 g(H,U,f)=  0.328E-05 0.425E-06 0.314E-22 ort(H,U,f) =-0.597E-06 0.651E-06 0.141E-21
CGA:   6    -0.593899734320E+03   -0.39778E-05   -0.39767E-05  1200   0.370E-05 0.542E-07
 gam= 0.310 trial= 0.632  step= 0.728 mean= 0.632
 gam= 0.333 g(H,U,f)=  0.111E-05 0.125E-06 0.408E-23 ort(H,U,f) =-0.209E-06 0.182E-06 0.271E-22
CGA:   7    -0.593899735672E+03   -0.13521E-05   -0.13534E-05  1200   0.123E-05-0.268E-07
 gam= 0.333 trial= 0.637  step= 0.710 mean= 0.637
 gam= 0.265 g(H,U,f)=  0.308E-06 0.194E-07 0.888E-23 ort(H,U,f) =-0.313E-07 0.259E-07 0.193E-22
CGA:   8    -0.593899736106E+03   -0.43442E-06   -0.43474E-06  1200   0.327E-06-0.548E-08
 gam= 0.265 trial= 0.641  step= 0.690 mean= 0.641
 final diagonalization
 421 F= -.59389974E+03 E0= -.59389974E+03  d E =-.330793E-04
 curvature:  -7.21 expect dE=-0.756E-03 dE for cont linesearch -0.522E-09
 trial: gam= 0.83824 g(F)=  0.102E-03 g(S)=  0.321E-05 ort = 0.499E-06 (trialstep = 0.225E+00)
 search vector abs. value=  0.252E-02
 bond charge predicted
 wavefunctions rotated
       N       E                     dE             d eps       ncg     rms          ort
 gam= 0.000 g(H,U,f)=  0.166E-02 0.144E-04 0.115E-23 ort(H,U,f) = 0.000E+00 0.000E+00 0.000E+00
SDA:   1    -0.593899046675E+03    0.68900E-03    0.00000E+00  1200   0.168E-02 0.000E+00
 gam= 0.000 trial= 0.643  step= 0.677 mean= 0.643
 gam= 0.267 g(H,U,f)=  0.432E-03 0.152E-04 0.129E-20 ort(H,U,f) = 0.138E-04-0.119E-04-0.232E-22
CGA:   2    -0.593899614168E+03   -0.56749E-03   -0.56746E-03  1200   0.447E-03 0.194E-05
 gam= 0.267 trial= 0.645  step= 0.511 mean= 0.645
 gam= 0.173 g(H,U,f)=  0.740E-04 0.321E-05 0.780E-22 ort(H,U,f) = 0.180E-05-0.265E-05-0.313E-21
CGA:   3    -0.593899728683E+03   -0.11451E-03   -0.11446E-03  1200   0.773E-04-0.854E-06
 gam= 0.173 trial= 0.638  step= 0.517 mean= 0.638
 gam= 0.178 g(H,U,f)=  0.131E-04 0.658E-06 0.635E-22 ort(H,U,f) =-0.666E-06 0.712E-06 0.219E-22
CGA:   4    -0.593899748611E+03   -0.19928E-04   -0.19931E-04  1200   0.137E-04 0.462E-07
 gam= 0.178 trial= 0.632  step= 0.585 mean= 0.632
 gam= 0.227 g(H,U,f)=  0.282E-05 0.298E-06 0.174E-22 ort(H,U,f) =-0.383E-06 0.499E-06-0.353E-22
CGA:   5    -0.593899752621E+03   -0.40097E-05   -0.40125E-05  1200   0.312E-05 0.116E-06
 gam= 0.227 trial= 0.630  step= 0.676 mean= 0.630
 gam= 0.318 g(H,U,f)=  0.877E-06 0.116E-06 0.520E-23 ort(H,U,f) =-0.165E-06 0.173E-06-0.512E-23
CGA:   6    -0.593899753684E+03   -0.10636E-05   -0.10634E-05  1200   0.993E-06 0.832E-08
 gam= 0.318 trial= 0.632  step= 0.712 mean= 0.632
 gam= 0.324 g(H,U,f)=  0.290E-06 0.316E-07 0.204E-23 ort(H,U,f) =-0.280E-07 0.457E-07 0.224E-23
CGA:   7    -0.593899754040E+03   -0.35541E-06   -0.35473E-06  1200   0.322E-06 0.177E-07
 gam= 0.324 trial= 0.636  step= 0.681 mean= 0.636
 gam= 0.252 g(H,U,f)=  0.765E-07 0.472E-08 0.904E-24 ort(H,U,f) = 0.642E-08 0.888E-08-0.184E-23
CGA:   8    -0.593899754151E+03   -0.11166E-06   -0.11154E-06  1200   0.812E-07 0.153E-07
 gam= 0.252 trial= 0.638  step= 0.753 mean= 0.638
 final diagonalization
 422 F= -.59389975E+03 E0= -.59389975E+03  d E =-.180454E-04
 trial-energy change:   -0.000018  1 .order   -0.000018   -0.000024   -0.000013
 step:   0.4984(harm=  0.4984)  dis= 0.00172  next Energy=  -593.899762 (dE=-0.263E-04)
 reached required accuracy - stopping structural energy minimisation
Note: The following floating-point exceptions are signalling: IEEE_INVALID_FLAG
Note: The following floating-point exceptions are signalling: IEEE_INVALID_FLAG
Note: The following floating-point exceptions are signalling: IEEE_INVALID_FLAG
Note: The following floating-point exceptions are signalling: IEEE_INVALID_FLAG
Note: The following floating-point exceptions are signalling: IEEE_INVALID_FLAG
Note: The following floating-point exceptions are signalling: IEEE_INVALID_FLAG
Note: The following floating-point exceptions are signalling: IEEE_INVALID_FLAG
Note: The following floating-point exceptions are signalling: IEEE_INVALID_FLAG
Note: The following floating-point exceptions are signalling: IEEE_INVALID_FLAG
Note: The following floating-point exceptions are signalling: IEEE_INVALID_FLAG
Note: The following floating-point exceptions are signalling: IEEE_INVALID_FLAG
Note: The following floating-point exceptions are signalling: IEEE_INVALID_FLAG
Note: The following floating-point exceptions are signalling: IEEE_INVALID_FLAG
Note: The following floating-point exceptions are signalling: IEEE_INVALID_FLAG
Note: The following floating-point exceptions are signalling: IEEE_INVALID_FLAG
Note: The following floating-point exceptions are signalling: IEEE_INVALID_FLAG
Note: The following floating-point exceptions are signalling: IEEE_INVALID_FLAG
Note: The following floating-point exceptions are signalling: IEEE_INVALID_FLAG
Note: The following floating-point exceptions are signalling: IEEE_INVALID_FLAG
Note: The following floating-point exceptions are signalling: IEEE_INVALID_FLAG
Note: The following floating-point exceptions are signalling: IEEE_INVALID_FLAG
Note: The following floating-point exceptions are signalling: IEEE_INVALID_FLAG
Note: The following floating-point exceptions are signalling: IEEE_INVALID_FLAG
Note: The following floating-point exceptions are signalling: IEEE_INVALID_FLAG
Note: The following floating-point exceptions are signalling: IEEE_INVALID_FLAG
Note: The following floating-point exceptions are signalling: IEEE_INVALID_FLAG
Note: The following floating-point exceptions are signalling: IEEE_INVALID_FLAG
Note: The following floating-point exceptions are signalling: IEEE_INVALID_FLAG
Note: The following floating-point exceptions are signalling: IEEE_INVALID_FLAG
Note: The following floating-point exceptions are signalling: IEEE_INVALID_FLAG
Note: The following floating-point exceptions are signalling: IEEE_INVALID_FLAG
Note: The following floating-point exceptions are signalling: IEEE_INVALID_FLAG
Note: The following floating-point exceptions are signalling: IEEE_INVALID_FLAG
Note: The following floating-point exceptions are signalling: IEEE_INVALID_FLAG
Note: The following floating-point exceptions are signalling: IEEE_INVALID_FLAG
Note: The following floating-point exceptions are signalling: IEEE_INVALID_FLAG
Note: The following floating-point exceptions are signalling: IEEE_INVALID_FLAG
Note: The following floating-point exceptions are signalling: IEEE_INVALID_FLAG
Note: The following floating-point exceptions are signalling: IEEE_INVALID_FLAG
Note: The following floating-point exceptions are signalling: IEEE_INVALID_FLAG
Note: The following floating-point exceptions are signalling: IEEE_INVALID_FLAG
Note: The following floating-point exceptions are signalling: IEEE_INVALID_FLAG
Note: The following floating-point exceptions are signalling: IEEE_INVALID_FLAG
Note: The following floating-point exceptions are signalling: IEEE_INVALID_FLAG
Note: The following floating-point exceptions are signalling: IEEE_INVALID_FLAG
Note: The following floating-point exceptions are signalling: IEEE_INVALID_FLAG
Note: The following floating-point exceptions are signalling: IEEE_INVALID_FLAG
Note: The following floating-point exceptions are signalling: IEEE_INVALID_FLAG
Note: The following floating-point exceptions are signalling: IEEE_INVALID_FLAG
Note: The following floating-point exceptions are signalling: IEEE_INVALID_FLAG
Note: The following floating-point exceptions are signalling: IEEE_INVALID_FLAG
Note: The following floating-point exceptions are signalling: IEEE_INVALID_FLAG
Note: The following floating-point exceptions are signalling: IEEE_INVALID_FLAG
Note: The following floating-point exceptions are signalling: IEEE_INVALID_FLAG
Note: The following floating-point exceptions are signalling: IEEE_INVALID_FLAG
Note: The following floating-point exceptions are signalling: IEEE_INVALID_FLAG
Note: The following floating-point exceptions are signalling: IEEE_INVALID_FLAG
Note: The following floating-point exceptions are signalling: IEEE_INVALID_FLAG
Note: The following floating-point exceptions are signalling: IEEE_INVALID_FLAG
Note: The following floating-point exceptions are signalling: IEEE_INVALID_FLAG
Note: The following floating-point exceptions are signalling: IEEE_INVALID_FLAG
Note: The following floating-point exceptions are signalling: IEEE_INVALID_FLAG
Note: The following floating-point exceptions are signalling: IEEE_INVALID_FLAG
Note: The following floating-point exceptions are signalling: IEEE_INVALID_FLAG
