hexagonal-FASnI3                        
           1
    14.637000    0.000000    0.000000
     0.000000    8.786000    0.000000
     0.000000    0.000000    8.288000
   C    H    I    N    Sn
     4    20    12     8     4
Direct configuration=     1
   0.65477722  0.53770112  0.28002646
   0.33374952  0.47221309  0.78616470
   0.85084249  0.04331646  0.77365034
   0.16656185  0.03498578  0.22223027
   0.65275110  0.42700353  0.06166800
   0.65058231  0.31166843  0.33839839
   0.64962976  0.43954288  0.49868082
   0.65930046  0.62334695  0.05529186
   0.65664694  0.65091585  0.33258408
   0.35768402  0.59770567  0.58168371
   0.43932273  0.61258122  0.84476448
   0.40272631  0.48637298  0.99457963
   0.27045299  0.46620469  0.57049427
   0.29060413  0.38189991  0.83313804
   0.85119257  0.81679041  0.83091664
   0.86071179  0.93430170  0.55500930
   0.85678887  0.13071201  0.54966964
   0.84697377  0.94404787  0.99166701
   0.84800973  0.15610095  0.82714557
   0.14151266  0.92739348  0.43791750
   0.17592632  0.80845098  0.16924049
   0.19512124  0.93410677  0.01064452
   0.14047368  0.12393591  0.44081200
   0.17217304  0.14751170  0.16904221
   0.58910000  0.23970000  0.79700000
   0.41090000  0.76030000  0.29700000
   0.91090000  0.73970000  0.29700000
   0.08910000  0.26030000  0.79700000
   0.33402000  0.99870000  0.75710000
   0.66598000  0.00130000  0.25710000
   0.16598000  0.49870000  0.25710000
   0.83402000  0.50130000  0.75710000
   0.41170000  0.24010000  0.20500000
   0.58830000  0.75990000  0.70500000
   0.08830000  0.74010000  0.70500000
   0.91170000  0.25990000  0.20500000
   0.65158406  0.42132262  0.37820605
   0.65579154  0.52749731  0.12228558
   0.39397988  0.53272368  0.88344822
   0.32150131  0.51318525  0.63583723
   0.85537912  0.03431811  0.61616263
   0.84929316  0.92619542  0.87116390
   0.17766296  0.91735432  0.12760058
   0.14883791  0.02706155  0.37694074
   0.50000000  0.00260000  0.00000000
   0.50000000  0.99740000  0.50000000
   0.00000000  0.50260000  0.50000000
   0.00000000  0.49740000  0.00000000
hexagonal-FASnI3                        
           1
    14.644331   -0.001329    0.004504
    -0.000796    8.778026   -0.001778
     0.002551   -0.001677    8.266975
   C    H    I    N    Sn
     4    20    12     8     4
Direct configuration=     2
   0.65478053  0.53771023  0.28001263
   0.33375160  0.47221603  0.78616199
   0.85083523  0.04331038  0.77368241
   0.16656212  0.03498317  0.22222667
   0.65275078  0.42700444  0.06167707
   0.65058559  0.31165378  0.33839982
   0.64963454  0.43955574  0.49869333
   0.65930231  0.62334762  0.05529249
   0.65665062  0.65093439  0.33257622
   0.35768142  0.59771508  0.58169012
   0.43934251  0.61258079  0.84476658
   0.40272538  0.48636048  0.99454589
   0.27046327  0.46620251  0.57047204
   0.29060177  0.38191032  0.83312621
   0.85120138  0.81682617  0.83094713
   0.86071173  0.93430221  0.55503580
   0.85677974  0.13071061  0.54966921
   0.84698088  0.94405422  0.99166761
   0.84799486  0.15608610  0.82710465
   0.14151946  0.92736330  0.43793367
   0.17592835  0.80840774  0.16926353
   0.19512028  0.93411789  0.01061270
   0.14047023  0.12397024  0.44083143
   0.17217007  0.14755348  0.16902610
   0.58954638  0.24010755  0.79692975
   0.41095144  0.75996804  0.29704044
   0.91071137  0.74016334  0.29687985
   0.08933435  0.25972109  0.79664990
   0.33410950  0.99856715  0.75713945
   0.66634603  0.00140764  0.25706663
   0.16630996  0.49861471  0.25725003
   0.83386093  0.50151728  0.75703777
   0.41162586  0.24030990  0.20520029
   0.58871606  0.75871102  0.70528056
   0.08827906  0.74043609  0.70488411
   0.91149746  0.25935932  0.20496555
   0.65158549  0.42132580  0.37820473
   0.65579331  0.52751792  0.12227866
   0.39398306  0.53273705  0.88341345
   0.32148001  0.51318211  0.63582583
   0.85536854  0.03433964  0.61615933
   0.84929833  0.92617550  0.87119081
   0.17766109  0.91735921  0.12758413
   0.14884100  0.02704053  0.37696208
   0.49948855  0.00294508 -0.00009513
   0.49945659  0.99787802  0.49996351
  -0.00010061  0.50278797  0.50017350
  -0.00014297  0.49741970  0.00006431
hexagonal-FASnI3                        
           1
    14.653228   -0.002943    0.009970
    -0.001763    8.768349   -0.003936
     0.005646   -0.003711    8.241461
   C    H    I    N    Sn
     4    20    12     8     4
Direct configuration=     3
   0.65478455  0.53772129  0.27999581
   0.33375412  0.47221961  0.78615870
   0.85082643  0.04330300  0.77372143
   0.16656245  0.03498001  0.22222228
   0.65275038  0.42700554  0.06168811
   0.65058956  0.31163599  0.33840155
   0.64964033  0.43957137  0.49870857
   0.65930456  0.62334845  0.05529325
   0.65665507  0.65095690  0.33256667
   0.35767827  0.59772651  0.58169792
   0.43936651  0.61258027  0.84476913
   0.40272427  0.48634529  0.99450484
   0.27047575  0.46619987  0.57044500
   0.29059891  0.38192295  0.83311183
   0.85121206  0.81686961  0.83098423
   0.86071165  0.93430283  0.55506803
   0.85676867  0.13070891  0.54966870
   0.84698950  0.94406193  0.99166834
   0.84797683  0.15606805  0.82705488
   0.14152771  0.92732666  0.43795332
   0.17593080  0.80835524  0.16929154
   0.19511911  0.93413138  0.01057398
   0.14046605  0.12401194  0.44085507
   0.17216647  0.14760424  0.16900652
   0.59008787  0.24060265  0.79684410
   0.41101381  0.75956483  0.29708951
   0.91048263  0.74072608  0.29673393
   0.08961864  0.25901786  0.79622365
   0.33421805  0.99840581  0.75718734
   0.66679002  0.00153845  0.25702583
   0.16671015  0.49851120  0.25743233
   0.83366802  0.50178117  0.75696221
   0.41153590  0.24056490  0.20544408
   0.58922058  0.75726695  0.70562131
   0.08825370  0.74084430  0.70474321
   0.91125176  0.25870253  0.20492362
   0.65158722  0.42132967  0.37820312
   0.65579545  0.52754295  0.12227025
   0.39398691  0.53275328  0.88337114
   0.32145417  0.51317828  0.63581196
   0.85535571  0.03436578  0.61615534
   0.84930460  0.92615131  0.87122353
   0.17765883  0.91736514  0.12756413
   0.14884473  0.02701499  0.37698805
   0.49886822  0.00336412 -0.00021045
   0.49879750  0.99845855  0.49991959
  -0.00022266  0.50301631  0.50038470
  -0.00031639  0.49744362  0.00014265
hexagonal-FASnI3                        
           1
    14.656656   -0.003202    0.011500
    -0.001917    8.766844   -0.004556
     0.006511   -0.004295    8.237026
   C    H    I    N    Sn
     4    20    12     8     4
Direct configuration=     4
   0.65478711  0.53778454  0.28011698
   0.33374922  0.47217034  0.78625843
   0.85081863  0.04334380  0.77382464
   0.16657180  0.03507143  0.22213071
   0.65274861  0.42694440  0.06163321
   0.65059248  0.31157432  0.33837488
   0.64963851  0.43959418  0.49886700
   0.65930604  0.62341279  0.05522496
   0.65665741  0.65101624  0.33260810
   0.35768668  0.59775978  0.58166292
   0.43938920  0.61260321  0.84474420
   0.40273410  0.48630741  0.99459288
   0.27045989  0.46618825  0.57039476
   0.29058942  0.38190014  0.83314165
   0.85121579  0.81680321  0.83095966
   0.86071374  0.93424231  0.55501840
   0.85676525  0.13076777  0.54960544
   0.84698765  0.94408035  0.99184083
   0.84796797  0.15612484  0.82709530
   0.14152395  0.92726448  0.43800598
   0.17593070  0.80831119  0.16931152
   0.19513529  0.93414029  0.01042761
   0.14045614  0.12407391  0.44092330
   0.17216767  0.14765130  0.16897396
   0.59026324  0.24075755  0.79681323
   0.41102994  0.75942393  0.29709535
   0.91040957  0.74090820  0.29667630
   0.08971168  0.25878799  0.79607498
   0.33423954  0.99835291  0.75719619
   0.66691915  0.00158362  0.25701225
   0.16683902  0.49847559  0.25748597
   0.83360875  0.50186747  0.75694185
   0.41149543  0.24066956  0.20555640
   0.58937045  0.75682384  0.70571727
   0.08824873  0.74099406  0.70471108
   0.91117179  0.25848507  0.20490988
   0.65158668  0.42127097  0.37820612
   0.65579896  0.52754366  0.12209486
   0.39400051  0.53278951  0.88337247
   0.32143307  0.51321648  0.63565748
   0.85535568  0.03436817  0.61600475
   0.84930789  0.92611731  0.87122938
   0.17766005  0.91725315  0.12752477
   0.14882889  0.02702421  0.37716228
   0.49869550  0.00348179 -0.00025479
   0.49861548  0.99862125  0.49992081
  -0.00026537  0.50308071  0.50044484
  -0.00037240  0.49744112  0.00017382
hexagonal-FASnI3                        
           1
    14.666938   -0.003978    0.016090
    -0.002382    8.762330   -0.006414
     0.009106   -0.006044    8.223724
   C    H    I    N    Sn
     4    20    12     8     4
Direct configuration=     5
   0.65479477  0.53797436  0.28048071
   0.33373449  0.47202254  0.78655779
   0.85079521  0.04346623  0.77413445
   0.16659988  0.03534571  0.22185587
   0.65274330  0.42676092  0.06146839
   0.65060122  0.31138928  0.33829479
   0.64963300  0.43966265  0.49934258
   0.65931049  0.62360583  0.05501999
   0.65666440  0.65119428  0.33273248
   0.35771188  0.59785960  0.58155786
   0.43945728  0.61267202  0.84466938
   0.40276355  0.48619377  0.99485715
   0.27041233  0.46615340  0.57024398
   0.29056098  0.38183169  0.83323118
   0.85122696  0.81660397  0.83088589
   0.86072002  0.93406071  0.55486938
   0.85675501  0.13094438  0.54941556
   0.84698207  0.94413565  0.99235858
   0.84794138  0.15629524  0.82721663
   0.14151265  0.92707793  0.43816402
   0.17593040  0.80817902  0.16937146
   0.19518383  0.93416701  0.00998827
   0.14042641  0.12425985  0.44112809
   0.17217125  0.14779249  0.16887621
   0.59078923  0.24122235  0.79672049
   0.41107832  0.75900114  0.29711283
   0.91019046  0.74145463  0.29650340
   0.08999075  0.25809821  0.79562861
   0.33430400  0.99819418  0.75722271
   0.66730645  0.00171915  0.25697143
   0.16722551  0.49836873  0.25764691
   0.83343100  0.50212643  0.75688078
   0.41137401  0.24098360  0.20589361
   0.58981991  0.75549432  0.70600513
   0.08823381  0.74144339  0.70461466
   0.91093190  0.25783256  0.20486864
   0.65158507  0.42109487  0.37821509
   0.65580951  0.52754575  0.12156841
   0.39404130  0.53289821  0.88337647
   0.32136981  0.51333108  0.63519379
   0.85535561  0.03437533  0.61555275
   0.84931775  0.92601530  0.87124692
   0.17766373  0.91691710  0.12740659
   0.14878135  0.02705189  0.37768527
   0.49817746  0.00383483 -0.00038775
   0.49806958  0.99910943  0.49992459
  -0.00039348  0.50327393  0.50062542
  -0.00054039  0.49743363  0.00026741
hexagonal-FASnI3                        
           1
    14.672655   -0.003836    0.018338
    -0.002297    8.761685   -0.007247
     0.010375   -0.006828    8.218973
   C    H    I    N    Sn
     4    20    12     8     4
Direct configuration=     6
   0.65480148  0.53799714  0.28038590
   0.33372374  0.47205239  0.78645597
   0.85078771  0.04351531  0.77403954
   0.16658868  0.03531472  0.22192674
   0.65273796  0.42656545  0.06126237
   0.65060998  0.31119794  0.33820020
   0.64962562  0.43967464  0.49966802
   0.65931337  0.62380074  0.05477432
   0.65666997  0.65140826  0.33290445
   0.35774376  0.59798092  0.58141057
   0.43951450  0.61273762  0.84458303
   0.40279582  0.48613690  0.99506084
   0.27034298  0.46611845  0.57006223
   0.29052329  0.38172745  0.83335887
   0.85123195  0.81641368  0.83079731
   0.86072743  0.93387710  0.55467544
   0.85675057  0.13111693  0.54919560
   0.84697489  0.94414439  0.99271676
   0.84792146  0.15649465  0.82738957
   0.14149343  0.92691129  0.43833678
   0.17592876  0.80799745  0.16944471
   0.19521705  0.93413300  0.00966321
   0.14038981  0.12445587  0.44138493
   0.17218081  0.14797845  0.16874106
   0.59105924  0.24144066  0.79666977
   0.41110069  0.75877226  0.29710395
   0.91008141  0.74172702  0.29639404
   0.09013343  0.25774625  0.79538064
   0.33431241  0.99811026  0.75722521
   0.66747173  0.00179787  0.25695050
   0.16741810  0.49830917  0.25771760
   0.83334996  0.50226543  0.75685799
   0.41129084  0.24118559  0.20613136
   0.59002173  0.75485998  0.70612299
   0.08822688  0.74170222  0.70458857
   0.91080917  0.25749274  0.20483981
   0.65158154  0.42104657  0.37841395
   0.65581814  0.52760173  0.12151579
   0.39406346  0.53291047  0.88350919
   0.32135197  0.51331211  0.63517300
   0.85534844  0.03441504  0.61547770
   0.84932092  0.92596167  0.87145558
   0.17767755  0.91688552  0.12723078
   0.14878463  0.02712047  0.37775532
   0.49796818  0.00399291 -0.00046992
   0.49785176  0.99929931  0.49995260
  -0.00046510  0.50336799  0.50070166
  -0.00062662  0.49739456  0.00032840
hexagonal-FASnI3                        
           1
    14.683266   -0.003572    0.022510
    -0.002140    8.760488   -0.008794
     0.012731   -0.008283    8.210156
   C    H    I    N    Sn
     4    20    12     8     4
Direct configuration=     7
   0.65481396  0.53803942  0.28020978
   0.33370380  0.47210779  0.78626686
   0.85077379  0.04360642  0.77386327
   0.16656788  0.03525721  0.22205837
   0.65272807  0.42620255  0.06087967
   0.65062625  0.31084273  0.33802446
   0.64961188  0.43969695  0.50027247
   0.65931874  0.62416252  0.05431808
   0.65668027  0.65180552  0.33322389
   0.35780292  0.59820612  0.58113701
   0.43962069  0.61285939  0.84442264
   0.40285566  0.48603136  0.99543914
   0.27021432  0.46605355  0.56972468
   0.29045332  0.38153396  0.83359604
   0.85124123  0.81606040  0.83063275
   0.86074121  0.93353622  0.55431517
   0.85674236  0.13143723  0.54878708
   0.84696149  0.94416068  0.99338202
   0.84788446  0.15686485  0.82771082
   0.14145775  0.92660196  0.43865764
   0.17592570  0.80766039  0.16958072
   0.19527874  0.93406981  0.00905944
   0.14032185  0.12481979  0.44186202
   0.17219857  0.14832364  0.16849006
   0.59156025  0.24184593  0.79657546
   0.41114219  0.75834737  0.29708740
   0.90987907  0.74223266  0.29619101
   0.09039823  0.25709281  0.79491994
   0.33432802  0.99795447  0.75722983
   0.66777841  0.00194399  0.25691155
   0.16777543  0.49819862  0.25784878
   0.83319959  0.50252347  0.75681573
   0.41113648  0.24156061  0.20657302
   0.59039619  0.75368238  0.70634167
   0.08821402  0.74218271  0.70454017
   0.91058145  0.25686190  0.20478626
   0.65157496  0.42095696  0.37878330
   0.65583415  0.52770565  0.12141806
   0.39410456  0.53293325  0.88375568
   0.32131887  0.51327690  0.63513437
   0.85533514  0.03448875  0.61533831
   0.84932677  0.92586216  0.87184312
   0.17770324  0.91682687  0.12690423
   0.14879070  0.02724779  0.37788545
   0.49757985  0.00428635 -0.00062241
   0.49744760  0.99965183  0.50000477
  -0.00059799  0.50354263  0.50084333
  -0.00078664  0.49732205  0.00044171
hexagonal-FASnI3                        
           1
    14.688153   -0.003810    0.024930
    -0.002282    8.755427   -0.009211
     0.014096   -0.008674    8.204897
   C    H    I    N    Sn
     4    20    12     8     4
Direct configuration=     8
   0.65482082  0.53803691  0.28033982
   0.33372690  0.47211583  0.78637130
   0.85075623  0.04360243  0.77400891
   0.16657283  0.03524876  0.22197546
   0.65272557  0.42613806  0.06064059
   0.65064480  0.31072870  0.33798188
   0.64959663  0.43967209  0.50065972
   0.65931257  0.62428840  0.05401091
   0.65668561  0.65197570  0.33343189
   0.35778793  0.59825756  0.58095006
   0.43965568  0.61284362  0.84434952
   0.40290675  0.48599126  0.99568442
   0.27017183  0.46607841  0.56950846
   0.29044868  0.38148114  0.83374989
   0.85123971  0.81596324  0.83060066
   0.86074237  0.93345321  0.55406884
   0.85673445  0.13154332  0.54850074
   0.84694959  0.94413008  0.99378874
   0.84785822  0.15703724  0.82793171
   0.14143390  0.92658710  0.43883817
   0.17593160  0.80754847  0.16958030
   0.19530972  0.93396061  0.00867786
   0.14026949  0.12497920  0.44221626
   0.17220432  0.14843256  0.16835805
   0.59185768  0.24203993  0.79652645
   0.41117024  0.75808961  0.29706066
   0.90976775  0.74251004  0.29604308
   0.09055024  0.25672219  0.79461283
   0.33430240  0.99785613  0.75721523
   0.66789893  0.00204916  0.25688893
   0.16797137  0.49812545  0.25791255
   0.83313526  0.50269096  0.75680853
   0.41101688  0.24183149  0.20694042
   0.59056894  0.75306186  0.70642686
   0.08820020  0.74250193  0.70453717
   0.91045012  0.25648919  0.20473655
   0.65157330  0.42095337  0.37892674
   0.65585041  0.52772212  0.12114053
   0.39409843  0.53292621  0.88382448
   0.32129216  0.51332829  0.63494070
   0.85533707  0.03450425  0.61506024
   0.84933564  0.92585602  0.87200771
   0.17772188  0.91679953  0.12673831
   0.14877938  0.02726131  0.37812799
   0.49743927  0.00444950 -0.00073033
   0.49730743  0.99974791  0.50006515
  -0.00068381  0.50366102  0.50090173
  -0.00088196  0.49719720  0.00052816
hexagonal-FASnI3                        
           1
    14.693800   -0.004084    0.027726
    -0.002447    8.749580   -0.009693
     0.015675   -0.009125    8.198819
   C    H    I    N    Sn
     4    20    12     8     4
Direct configuration=     9
   0.65482873  0.53803402  0.28049019
   0.33375358  0.47212513  0.78649206
   0.85073592  0.04359783  0.77417734
   0.16657856  0.03523898  0.22187958
   0.65272270  0.42606349  0.06036411
   0.65066624  0.31059685  0.33793263
   0.64957898  0.43964337  0.50110755
   0.65930548  0.62443394  0.05365571
   0.65669175  0.65217250  0.33367243
   0.35777063  0.59831702  0.58073387
   0.43969611  0.61282538  0.84426495
   0.40296575  0.48594490  0.99596806
   0.27012277  0.46610713  0.56925843
   0.29044329  0.38142008  0.83392780
   0.85123795  0.81585089  0.83056354
   0.86074373  0.93335720  0.55378398
   0.85672534  0.13166599  0.54816961
   0.84693580  0.94409471  0.99425909
   0.84782788  0.15723659  0.82818716
   0.14140633  0.92656992  0.43904695
   0.17593842  0.80741906  0.16957981
   0.19534556  0.93383432  0.00823658
   0.14020896  0.12516355  0.44262593
   0.17221099  0.14855849  0.16820540
   0.59220131  0.24226426  0.79646969
   0.41120265  0.75779154  0.29702971
   0.90963916  0.74283078  0.29587206
   0.09072589  0.25629362  0.79425761
   0.33427280  0.99774241  0.75719835
   0.66803817  0.00217077  0.25686273
   0.16819772  0.49804085  0.25798622
   0.83306095  0.50288464  0.75680025
   0.41087868  0.24214475  0.20736535
   0.59076850  0.75234432  0.70652528
   0.08818425  0.74287106  0.70453373
   0.91029840  0.25605820  0.20467907
   0.65157137  0.42094923  0.37909263
   0.65586922  0.52774116  0.12081958
   0.39409135  0.53291807  0.88390404
   0.32126133  0.51338770  0.63471675
   0.85533932  0.03452216  0.61473867
   0.84934588  0.92584893  0.87219804
   0.17774343  0.91676791  0.12654644
   0.14876628  0.02727694  0.37840849
   0.49727688  0.00463815 -0.00085509
   0.49714549  0.99985901  0.50013502
  -0.00078296  0.50379793  0.50096931
  -0.00099208  0.49705284  0.00062815
hexagonal-FASnI3                        
           1
    14.697180   -0.004503    0.030678
    -0.002700    8.738116   -0.009859
     0.017346   -0.009278    8.188501
   C    H    I    N    Sn
     4    20    12     8     4
Direct configuration=    10
   0.65484185  0.53816870  0.28047224
   0.33372645  0.47210038  0.78651714
   0.85072002  0.04369418  0.77417480
   0.16657295  0.03536085  0.22188689
   0.65272334  0.42614595  0.06005436
   0.65069884  0.31064277  0.33800658
   0.64955441  0.43954569  0.50141326
   0.65928552  0.62444085  0.05329306
   0.65669539  0.65220770  0.33387742
   0.35770818  0.59831447  0.58046215
   0.43969067  0.61267835  0.84422477
   0.40302768  0.48596807  0.99615441
   0.27013231  0.46622464  0.56902930
   0.29049278  0.38146082  0.83410252
   0.85122668  0.81592408  0.83065215
   0.86073807  0.93340103  0.55345282
   0.85671224  0.13167551  0.54780663
   0.84692088  0.94398746  0.99456955
   0.84779478  0.15728977  0.82841858
   0.14136967  0.92667616  0.43929268
   0.17595699  0.80744106  0.16944291
   0.19535409  0.93362016  0.00790283
   0.14014534  0.12517570  0.44303226
   0.17220765  0.14853603  0.16810556
   0.59253267  0.24241421  0.79642037
   0.41124423  0.75750563  0.29697464
   0.90952876  0.74310431  0.29566169
   0.09088422  0.25591156  0.79387038
   0.33420414  0.99762339  0.75716294
   0.66808627  0.00231624  0.25683426
   0.16838489  0.49794934  0.25803749
   0.83302634  0.50309464  0.75681694
   0.41071513  0.24249522  0.20790919
   0.59089397  0.75175188  0.70656793
   0.08815238  0.74326186  0.70456426
   0.91015677  0.25563986  0.20459887
   0.65156873  0.42087229  0.37931063
   0.65589490  0.52777326  0.12071456
   0.39411931  0.53291787  0.88402068
   0.32123026  0.51340381  0.63462725
   0.85533459  0.03453056  0.61469876
   0.84935867  0.92579383  0.87244704
   0.17778293  0.91664586  0.12632556
   0.14877091  0.02739282  0.37856019
   0.49723303  0.00481892 -0.00098311
   0.49711784  0.99981440  0.50022902
  -0.00088020  0.50395790  0.50100525
  -0.00109204  0.49679856  0.00074521
hexagonal-FASnI3                        
           1
    14.704737   -0.005439    0.037277
    -0.003265    8.712496   -0.010229
     0.021081   -0.009621    8.165441
   C    H    I    N    Sn
     4    20    12     8     4
Direct configuration=    11
   0.65487116  0.53847008  0.28043207
   0.33366583  0.47204497  0.78657330
   0.85068451  0.04390981  0.77416914
   0.16656042  0.03563360  0.22190325
   0.65272485  0.42633048  0.05936119
   0.65077166  0.31074555  0.33817206
   0.64949943  0.43932710  0.50209739
   0.65924100  0.62445630  0.05248151
   0.65670347  0.65228649  0.33433615
   0.35756869  0.59830874  0.57985414
   0.43967850  0.61234930  0.84413484
   0.40316600  0.48601992  0.99657138
   0.27015368  0.46648762  0.56851656
   0.29060332  0.38155202  0.83449347
   0.85120145  0.81608787  0.83085047
   0.86072550  0.93349912  0.55271175
   0.85668305  0.13169679  0.54699437
   0.84688744  0.94374745  0.99526429
   0.84772076  0.15740878  0.82893647
   0.14128771  0.92691392  0.43984260
   0.17599852  0.80749029  0.16913655
   0.19537324  0.93314086  0.00715595
   0.14000309  0.12520289  0.44394160
   0.17220021  0.14848577  0.16788212
   0.59327312  0.24274982  0.79630975
   0.41133716  0.75686577  0.29685133
   0.90928213  0.74371644  0.29519101
   0.09123809  0.25505652  0.79300368
   0.33405072  0.99735702  0.75708373
   0.66819374  0.00264180  0.25677052
   0.16880311  0.49774457  0.25815206
   0.83294900  0.50356461  0.75685433
   0.41034955  0.24327955  0.20912634
   0.59117430  0.75042604  0.70666322
   0.08808119  0.74413644  0.70463263
   0.90984031  0.25470362  0.20441948
   0.65156277  0.42070011  0.37979847
   0.65595231  0.52784509  0.12047953
   0.39418175  0.53291744  0.88428168
   0.32116085  0.51343987  0.63442699
   0.85532403  0.03454935  0.61460947
   0.84938719  0.92567053  0.87300424
   0.17787126  0.91637270  0.12583123
   0.14878121  0.02765216  0.37889966
   0.49713508  0.00522345 -0.00126957
   0.49705604  0.99971455  0.50043940
  -0.00109750  0.50431589  0.50108575
  -0.00131545  0.49622948  0.00100724
hexagonal-FASnI3                        
           1
    14.707656   -0.004906    0.039657
    -0.002953    8.702051   -0.010480
     0.022434   -0.009855    8.154989
   C    H    I    N    Sn
     4    20    12     8     4
Direct configuration=    12
   0.65487806  0.53841560  0.28053683
   0.33369770  0.47210980  0.78663106
   0.85066909  0.04391134  0.77435705
   0.16657006  0.03551004  0.22183628
   0.65272330  0.42636571  0.05902514
   0.65080608  0.31064769  0.33825281
   0.64946908  0.43921378  0.50238848
   0.65921638  0.62445743  0.05212394
   0.65670817  0.65238745  0.33453700
   0.35752421  0.59834670  0.57953501
   0.43972401  0.61227042  0.84406139
   0.40322526  0.48603644  0.99677883
   0.27015622  0.46659776  0.56829100
   0.29061859  0.38152937  0.83471304
   0.85118981  0.81601849  0.83095056
   0.86071783  0.93353229  0.55238389
   0.85666515  0.13165928  0.54667143
   0.84687060  0.94363167  0.99558339
   0.84768528  0.15748717  0.82914753
   0.14124451  0.92697029  0.44013524
   0.17602051  0.80732111  0.16901982
   0.19537670  0.93291707  0.00682244
   0.13993606  0.12525688  0.44436503
   0.17219890  0.14860069  0.16773504
   0.59357902  0.24285244  0.79626158
   0.41138255  0.75659501  0.29677336
   0.90918708  0.74395271  0.29495433
   0.09137186  0.25472424  0.79261417
   0.33396253  0.99724262  0.75703920
   0.66818000  0.00278686  0.25673357
   0.16894281  0.49764935  0.25818289
   0.83293960  0.50376685  0.75688773
   0.41018578  0.24362069  0.20971473
   0.59124733  0.74994639  0.70667651
   0.08803889  0.74452429  0.70468829
   0.90970730  0.25429370  0.20434255
   0.65156972  0.42090130  0.37989296
   0.65598594  0.52796970  0.12041228
   0.39412564  0.53281908  0.88430998
   0.32112751  0.51342806  0.63440390
   0.85531826  0.03463922  0.61447817
   0.84939733  0.92584282  0.87312912
   0.17788840  0.91657005  0.12575071
   0.14879630  0.02777665  0.37894636
   0.49716585  0.00538349 -0.00136471
   0.49711889  0.99958434  0.50053252
  -0.00117564  0.50446729  0.50110431
  -0.00138909  0.49593696  0.00111809
hexagonal-FASnI3                        
           1
    14.709442   -0.004580    0.041114
    -0.002762    8.695662   -0.010633
     0.023261   -0.009998    8.148594
   C    H    I    N    Sn
     4    20    12     8     4
Direct configuration=    13
   0.65488227  0.53838223  0.28060100
   0.33371720  0.47214950  0.78666644
   0.85065965  0.04391229  0.77447215
   0.16657596  0.03543436  0.22179525
   0.65272237  0.42638728  0.05881930
   0.65082713  0.31058775  0.33830226
   0.64945050  0.43914438  0.50256678
   0.65920133  0.62445812  0.05190492
   0.65671103  0.65244928  0.33466003
   0.35749702  0.59836994  0.57933954
   0.43975185  0.61222210  0.84401639
   0.40326149  0.48604656  0.99690588
   0.27015779  0.46666522  0.56815284
   0.29062792  0.38151551  0.83484753
   0.85118269  0.81597599  0.83101187
   0.86071316  0.93355261  0.55218307
   0.85665422  0.13163630  0.54647362
   0.84686028  0.94356076  0.99577884
   0.84766357  0.15753519  0.82927683
   0.14121808  0.92700483  0.44031450
   0.17603397  0.80721748  0.16894831
   0.19537884  0.93277999  0.00661815
   0.13989504  0.12528996  0.44462442
   0.17219810  0.14867108  0.16764495
   0.59376613  0.24291528  0.79623202
   0.41141032  0.75642917  0.29672559
   0.90912895  0.74409742  0.29480938
   0.09145371  0.25452070  0.79237555
   0.33390859  0.99717255  0.75701194
   0.66817160  0.00287571  0.25671093
   0.16902826  0.49759103  0.25820175
   0.83293385  0.50389073  0.75690820
   0.41008558  0.24382965  0.21007518
   0.59129201  0.74965261  0.70668463
   0.08801301  0.74476184  0.70472240
   0.90962595  0.25404263  0.20429545
   0.65157396  0.42102452  0.37995084
   0.65600651  0.52804601  0.12037108
   0.39409132  0.53275884  0.88432732
   0.32110712  0.51342083  0.63438976
   0.85531474  0.03469426  0.61439775
   0.84940353  0.92594835  0.87320561
   0.17789889  0.91669092  0.12570139
   0.14880552  0.02785289  0.37897496
   0.49718467  0.00548152 -0.00142299
   0.49715733  0.99950458  0.50058954
  -0.00122344  0.50456002  0.50111570
  -0.00143412  0.49575780  0.00118600
hexagonal-FASnI3                        
           1
    14.711231   -0.003111    0.041993
    -0.001892    8.692939   -0.011196
     0.023763   -0.010524    8.144241
   C    H    I    N    Sn
     4    20    12     8     4
Direct configuration=    14
   0.65488765  0.53848504  0.28066688
   0.33369355  0.47211167  0.78672706
   0.85065669  0.04403055  0.77451413
   0.16658790  0.03553728  0.22174457
   0.65272017  0.42637739  0.05864815
   0.65084748  0.31046285  0.33837395
   0.64942835  0.43910213  0.50271961
   0.65918575  0.62452990  0.05171805
   0.65671411  0.65256870  0.33475163
   0.35748864  0.59841497  0.57914504
   0.43980712  0.61222114  0.84395517
   0.40327906  0.48603062  0.99704172
   0.27013780  0.46668883  0.56804884
   0.29060435  0.38145056  0.83500060
   0.85117630  0.81583902  0.83108674
   0.86070727  0.93354559  0.55202733
   0.85663976  0.13166829  0.54631468
   0.84684960  0.94351743  0.99597139
   0.84764189  0.15764570  0.82937988
   0.14119222  0.92699339  0.44049321
   0.17604798  0.80703796  0.16887693
   0.19537303  0.93269483  0.00645204
   0.13986077  0.12538927  0.44482828
   0.17219756  0.14883558  0.16754023
   0.59390412  0.24292582  0.79620174
   0.41143966  0.75629962  0.29665285
   0.90909235  0.74418684  0.29464638
   0.09149656  0.25439744  0.79216553
   0.33384521  0.99711674  0.75698112
   0.66810294  0.00295100  0.25667782
   0.16904888  0.49753942  0.25819346
   0.83295224  0.50399003  0.75694423
   0.41000527  0.24398953  0.21042866
   0.59127916  0.74951346  0.70667112
   0.08797699  0.74496307  0.70478364
   0.90956126  0.25382604  0.20426483
   0.65158059  0.42102369  0.38001630
   0.65602896  0.52807315  0.12029207
   0.39410300  0.53276033  0.88434979
   0.32110557  0.51347156  0.63431029
   0.85530672  0.03472788  0.61432749
   0.84940350  0.92595699  0.87328732
   0.17791101  0.91664446  0.12563350
   0.14880394  0.02783692  0.37905792
   0.49727046  0.00554306 -0.00142362
   0.49727984  0.99935715  0.50063290
  -0.00123881  0.50462214  0.50111095
  -0.00143896  0.49557351  0.00123245
hexagonal-FASnI3                        
           1
    14.716597    0.001298    0.044632
     0.000717    8.684770   -0.012883
     0.025267   -0.012102    8.131183
   C    H    I    N    Sn
     4    20    12     8     4
Direct configuration=    15
   0.65490374  0.53879357  0.28086464
   0.33362262  0.47199819  0.78690900
   0.85064777  0.04438547  0.77464014
   0.16662371  0.03584612  0.22159247
   0.65271356  0.42634768  0.05813444
   0.65090853  0.31008805  0.33858912
   0.64936191  0.43897539  0.50317834
   0.65913901  0.62474530  0.05115714
   0.65672330  0.65292708  0.33502661
   0.35746352  0.59855010  0.57856124
   0.43997293  0.61221822  0.84377138
   0.40333174  0.48598279  0.99744942
   0.27007783  0.46675969  0.56773668
   0.29053365  0.38125571  0.83546005
   0.85115716  0.81542802  0.83131147
   0.86068962  0.93352451  0.55155988
   0.85659639  0.13176426  0.54583762