       N       E                     dE             d eps       ncg     rms          ort
DAV:   1     0.807481532421E+03    0.80748E+03   -0.91883E+04  1200   0.163E+03
DAV:   2    -0.471415047439E+03   -0.12789E+04   -0.12227E+04  1200   0.256E+02
DAV:   3    -0.637771872213E+03   -0.16636E+03   -0.16474E+03  1200   0.103E+02
DAV:   4    -0.642652995313E+03   -0.48811E+01   -0.48483E+01  1200   0.197E+01
DAV:   5    -0.642800073117E+03   -0.14708E+00   -0.14695E+00  1200   0.322E+00
SDA:   6    -0.575895835755E+03    0.66904E+02   -0.14695E+00  1200   0.736E+02 0.000E+00
CGA:   7    -0.588339080124E+03   -0.12443E+02   -0.12491E+02  1200   0.518E+01 0.925E+00
CGA:   8    -0.589938231124E+03   -0.15992E+01   -0.15951E+01  1200   0.168E+01 0.261E-01
CGA:   9    -0.590455761955E+03   -0.51753E+00   -0.51719E+00  1200   0.505E+00 0.343E-02
CGA:  10    -0.590608906380E+03   -0.15314E+00   -0.15311E+00  1200   0.136E+00 0.209E-03
CGA:  11    -0.590655813097E+03   -0.46907E-01   -0.46936E-01  1200   0.371E-01-0.266E-03
CGA:  12    -0.590667668195E+03   -0.11855E-01   -0.11858E-01  1200   0.781E-02-0.193E-04
CGA:  13    -0.590670505525E+03   -0.28373E-02   -0.28406E-02  1200   0.196E-02-0.222E-04
CGA:  14    -0.590671214065E+03   -0.70854E-03   -0.70817E-03  1200   0.441E-03 0.312E-05
CGA:  15    -0.590671383402E+03   -0.16934E-03   -0.16775E-03  1200   0.106E-03 0.112E-04
CGA:  16    -0.590671428127E+03   -0.44725E-04   -0.44306E-04  1200   0.270E-04 0.257E-05
CGA:  17    -0.590671439554E+03   -0.11427E-04   -0.11401E-04  1200   0.688E-05 0.160E-06
CGA:  18    -0.590671442284E+03   -0.27300E-05   -0.26697E-05  1200   0.178E-05 0.485E-06
   1 F= -.59067144E+03 E0= -.59067144E+03  d E =-.590671E+03
       N       E                     dE             d eps       ncg     rms          ort
SDA:   1    -0.582855896788E+03    0.78155E+01    0.00000E+00  1200   0.176E+02 0.000E+00
CGA:   2    -0.588853795242E+03   -0.59979E+01   -0.59874E+01  1200   0.554E+01 0.109E+00
CGA:   3    -0.590358510067E+03   -0.15047E+01   -0.15045E+01  1200   0.870E+00-0.122E-01
CGA:   4    -0.590573093507E+03   -0.21458E+00   -0.21465E+00  1200   0.166E+00 0.789E-03
CGA:   5    -0.590621022819E+03   -0.47929E-01   -0.47928E-01  1200   0.416E-01 0.130E-03
CGA:   6    -0.590634785186E+03   -0.13762E-01   -0.13760E-01  1200   0.131E-01 0.390E-04
CGA:   7    -0.590639565304E+03   -0.47801E-02   -0.47796E-02  1200   0.400E-02 0.435E-05
CGA:   8    -0.590641040378E+03   -0.14751E-02   -0.14749E-02  1200   0.990E-03 0.217E-05
CGA:   9    -0.590641388853E+03   -0.34848E-03   -0.34835E-03  1200   0.214E-03 0.198E-05
CGA:  10    -0.590641467210E+03   -0.78356E-04   -0.78346E-04  1200   0.492E-04 0.136E-06
CGA:  11    -0.590641486590E+03   -0.19380E-04   -0.19484E-04  1200   0.131E-04-0.102E-05
CGA:  12    -0.590641491601E+03   -0.50106E-05   -0.50265E-05  1200   0.331E-05-0.172E-06
CGA:  13    -0.590641492908E+03   -0.13075E-05   -0.13167E-05  1200   0.944E-06-0.906E-07
   2 F= -.59064149E+03 E0= -.59064149E+03  d E =0.299494E-01
       N       E                     dE             d eps       ncg     rms          ort
SDA:   1    -0.588841015359E+03    0.18005E+01    0.00000E+00  1200   0.465E+01 0.000E+00
CGA:   2    -0.590400077181E+03   -0.15591E+01   -0.15595E+01  1200   0.153E+01-0.123E-01
CGA:   3    -0.590799252847E+03   -0.39918E+00   -0.39954E+00  1200   0.227E+00 0.237E-02
CGA:   4    -0.590857512356E+03   -0.58260E-01   -0.58251E-01  1200   0.432E-01-0.252E-04
CGA:   5    -0.590870205231E+03   -0.12693E-01   -0.12692E-01  1200   0.107E-01-0.424E-04
CGA:   6    -0.590873749932E+03   -0.35447E-02   -0.35447E-02  1200   0.340E-02-0.647E-06
CGA:   7    -0.590875001274E+03   -0.12513E-02   -0.12508E-02  1200   0.103E-02 0.918E-05
CGA:   8    -0.590875380096E+03   -0.37882E-03   -0.37879E-03  1200   0.250E-03 0.637E-06
CGA:   9    -0.590875467900E+03   -0.87803E-04   -0.87835E-04  1200   0.542E-04-0.882E-06
CGA:  10    -0.590875487284E+03   -0.19384E-04   -0.19383E-04  1200   0.119E-04-0.502E-08
CGA:  11    -0.590875491644E+03   -0.43608E-05   -0.43396E-05  1200   0.293E-05 0.468E-06
   3 F= -.59087549E+03 E0= -.59087549E+03  d E =-.204049E+00
       N       E                     dE             d eps       ncg     rms          ort
SDA:   1    -0.588472155535E+03    0.24033E+01    0.00000E+00  1200   0.627E+01 0.000E+00
CGA:   2    -0.590305565605E+03   -0.18334E+01   -0.18346E+01  1200   0.211E+01 0.154E-01
CGA:   3    -0.590895813782E+03   -0.59025E+00   -0.59003E+00  1200   0.360E+00-0.163E-02
CGA:   4    -0.590984731785E+03   -0.88918E-01   -0.88944E-01  1200   0.665E-01 0.126E-03
CGA:   5    -0.591003614893E+03   -0.18883E-01   -0.18886E-01  1200   0.159E-01 0.781E-04
CGA:   6    -0.591008737306E+03   -0.51224E-02   -0.51224E-02  1200   0.479E-02 0.983E-05
CGA:   7    -0.591010551482E+03   -0.18142E-02   -0.18147E-02  1200   0.154E-02-0.875E-05
CGA:   8    -0.591011121660E+03   -0.57018E-03   -0.57008E-03  1200   0.398E-03 0.179E-05
CGA:   9    -0.591011262847E+03   -0.14119E-03   -0.14113E-03  1200   0.894E-04 0.185E-05
CGA:  10    -0.591011296186E+03   -0.33339E-04   -0.33338E-04  1200   0.203E-04 0.704E-08
CGA:  11    -0.591011304225E+03   -0.80389E-05   -0.80539E-05  1200   0.537E-05-0.216E-06
CGA:  12    -0.591011306239E+03   -0.20141E-05   -0.20051E-05  1200   0.127E-05 0.189E-06
   4 F= -.59101131E+03 E0= -.59101131E+03  d E =-.135815E+00
       N       E                     dE             d eps       ncg     rms          ort
SDA:   1    -0.590901721874E+03    0.10958E+00    0.00000E+00  1200   0.303E+00 0.000E+00
CGA:   2    -0.590989194013E+03   -0.87472E-01   -0.87456E-01  1200   0.102E+00-0.959E-04
CGA:   3    -0.591017848555E+03   -0.28655E-01   -0.28658E-01  1200   0.174E-01 0.234E-04
CGA:   4    -0.591022162190E+03   -0.43136E-02   -0.43135E-02  1200   0.318E-02 0.554E-06
CGA:   5    -0.591023069633E+03   -0.90744E-03   -0.90689E-03  1200   0.758E-03-0.137E-04
CGA:   6    -0.591023310061E+03   -0.24043E-03   -0.24042E-03  1200   0.224E-03-0.130E-05
CGA:   7    -0.591023393423E+03   -0.83362E-04   -0.83213E-04  1200   0.698E-04 0.301E-05
CGA:   8    -0.591023420115E+03   -0.26692E-04   -0.26693E-04  1200   0.187E-04-0.541E-08
CGA:   9    -0.591023426874E+03   -0.67594E-05   -0.67712E-05  1200   0.434E-05-0.339E-06
CGA:  10    -0.591023428445E+03   -0.15701E-05   -0.15713E-05  1200   0.949E-06-0.381E-07
   5 F= -.59102343E+03 E0= -.59102343E+03  d E =-.147937E+00
       N       E                     dE             d eps       ncg     rms          ort
SDA:   1    -0.590337281530E+03    0.68615E+00    0.00000E+00  1200   0.166E+01 0.000E+00
CGA:   2    -0.590929036070E+03   -0.59175E+00   -0.59172E+00  1200   0.482E+00 0.765E-03
CGA:   3    -0.591059620025E+03   -0.13058E+00   -0.13057E+00  1200   0.708E-01-0.123E-03
CGA:   4    -0.591078101031E+03   -0.18481E-01   -0.18480E-01  1200   0.162E-01-0.105E-04
CGA:   5    -0.591082770939E+03   -0.46699E-02   -0.46703E-02  1200   0.421E-02 0.103E-04
CGA:   6    -0.591084250264E+03   -0.14793E-02   -0.14793E-02  1200   0.134E-02 0.253E-05
CGA:   7    -0.591084744515E+03   -0.49425E-03   -0.49432E-03  1200   0.409E-03-0.170E-05
CGA:   8    -0.591084886538E+03   -0.14202E-03   -0.14200E-03  1200   0.935E-04 0.104E-05
CGA:   9    -0.591084919042E+03   -0.32505E-04   -0.32498E-04  1200   0.212E-04 0.457E-06
CGA:  10    -0.591084926834E+03   -0.77916E-05   -0.78014E-05  1200   0.509E-05-0.280E-06
CGA:  11    -0.591084928844E+03   -0.20101E-05   -0.20247E-05  1200   0.138E-05-0.208E-06
   6 F= -.59108493E+03 E0= -.59108493E+03  d E =-.615004E-01
       N       E                     dE             d eps       ncg     rms          ort
SDA:   1    -0.591078350753E+03    0.65761E-02    0.00000E+00  1200   0.157E-01 0.000E+00
CGA:   2    -0.591083934845E+03   -0.55841E-02   -0.55840E-02  1200   0.457E-02 0.482E-05
CGA:   3    -0.591085173685E+03   -0.12388E-02   -0.12386E-02  1200   0.668E-03-0.402E-05
CGA:   4    -0.591085347685E+03   -0.17400E-03   -0.17399E-03  1200   0.152E-03-0.995E-07
CGA:   5    -0.591085391117E+03   -0.43431E-04   -0.43487E-04  1200   0.390E-04 0.122E-05
CGA:   6    -0.591085404876E+03   -0.13760E-04   -0.13757E-04  1200   0.126E-04 0.122E-06
CGA:   7    -0.591085409620E+03   -0.47440E-05   -0.47555E-05  1200   0.406E-05-0.247E-06
CGA:   8    -0.591085410954E+03   -0.13331E-05   -0.13330E-05  1200   0.879E-06 0.854E-07
   7 F= -.59108541E+03 E0= -.59108541E+03  d E =-.619825E-01
       N       E                     dE             d eps       ncg     rms          ort
SDA:   1    -0.590933130586E+03    0.15228E+00    0.00000E+00  1200   0.457E+00 0.000E+00
CGA:   2    -0.591085572537E+03   -0.15244E+00   -0.15244E+00  1200   0.148E+00-0.111E-03
CGA:   3    -0.591125096690E+03   -0.39524E-01   -0.39528E-01  1200   0.214E-01-0.228E-04
CGA:   4    -0.591130695066E+03   -0.55984E-02   -0.55975E-02  1200   0.442E-02-0.718E-05
CGA:   5    -0.591131995775E+03   -0.13007E-02   -0.13008E-02  1200   0.109E-02 0.146E-05
CGA:   6    -0.591132367472E+03   -0.37170E-03   -0.37165E-03  1200   0.348E-03 0.274E-05
CGA:   7    -0.591132492342E+03   -0.12487E-03   -0.12488E-03  1200   0.103E-03-0.400E-06
CGA:   8    -0.591132529174E+03   -0.36832E-04   -0.36841E-04  1200   0.242E-04-0.265E-06
CGA:   9    -0.591132537462E+03   -0.82883E-05   -0.82826E-05  1200   0.514E-05 0.426E-06
CGA:  10    -0.591132539459E+03   -0.19967E-05   -0.20040E-05  1200   0.130E-05-0.141E-06
   8 F= -.59113254E+03 E0= -.59113254E+03  d E =-.471285E-01
       N       E                     dE             d eps       ncg     rms          ort
SDA:   1    -0.589436734806E+03    0.16958E+01    0.00000E+00  1200   0.411E+01 0.000E+00
CGA:   2    -0.590806049272E+03   -0.13693E+01   -0.13693E+01  1200   0.134E+01-0.385E-02
CGA:   3    -0.591161601419E+03   -0.35555E+00   -0.35578E+00  1200   0.195E+00 0.589E-03
CGA:   4    -0.591212823762E+03   -0.51222E-01   -0.51207E-01  1200   0.401E-01-0.780E-04
CGA:   5    -0.591224674138E+03   -0.11850E-01   -0.11850E-01  1200   0.990E-02-0.220E-05
CGA:   6    -0.591228082332E+03   -0.34082E-02   -0.34080E-02  1200   0.321E-02 0.995E-05
CGA:   7    -0.591229233790E+03   -0.11515E-02   -0.11515E-02  1200   0.940E-03-0.287E-06
CGA:   8    -0.591229571487E+03   -0.33770E-03   -0.33771E-03  1200   0.222E-03-0.353E-06
CGA:   9    -0.591229648544E+03   -0.77057E-04   -0.77037E-04  1200   0.479E-04 0.122E-05
CGA:  10    -0.591229666553E+03   -0.18009E-04   -0.18028E-04  1200   0.114E-04-0.458E-06
CGA:  11    -0.591229671191E+03   -0.46376E-05   -0.46746E-05  1200   0.325E-05-0.473E-06
   9 F= -.59122967E+03 E0= -.59122967E+03  d E =-.144260E+00
       N       E                     dE             d eps       ncg     rms          ort
SDA:   1    -0.584063908668E+03    0.71658E+01    0.00000E+00  1200   0.165E+02 0.000E+00
CGA:   2    -0.589521040716E+03   -0.54571E+01   -0.54567E+01  1200   0.541E+01-0.285E-01
CGA:   3    -0.590943812015E+03   -0.14228E+01   -0.14254E+01  1200   0.800E+00 0.808E-02
CGA:   4    -0.591155936120E+03   -0.21212E+00   -0.21201E+00  1200   0.164E+00-0.423E-03
CGA:   5    -0.591204804935E+03   -0.48869E-01   -0.48869E-01  1200   0.411E-01-0.244E-04
CGA:   6    -0.591219093683E+03   -0.14289E-01   -0.14288E-01  1200   0.136E-01 0.284E-04
CGA:   7    -0.591223996583E+03   -0.49029E-02   -0.49030E-02  1200   0.398E-02-0.947E-06
CGA:   8    -0.591225426889E+03   -0.14303E-02   -0.14303E-02  1200   0.938E-03-0.186E-06
CGA:   9    -0.591225754809E+03   -0.32792E-03   -0.32789E-03  1200   0.203E-03 0.198E-05
CGA:  10    -0.591225830225E+03   -0.75416E-04   -0.75453E-04  1200   0.473E-04-0.107E-05
CGA:  11    -0.591225849320E+03   -0.19095E-04   -0.19155E-04  1200   0.133E-04-0.859E-06
CGA:  12    -0.591225854418E+03   -0.50978E-05   -0.51028E-05  1200   0.351E-05-0.103E-06
CGA:  13    -0.591225855768E+03   -0.13504E-05   -0.13446E-05  1200   0.941E-06 0.148E-06
  10 F= -.59122586E+03 E0= -.59122586E+03  d E =-.140445E+00
       N       E                     dE             d eps       ncg     rms          ort
SDA:   1    -0.589352139348E+03    0.18737E+01    0.00000E+00  1200   0.439E+01 0.000E+00
CGA:   2    -0.590810692871E+03   -0.14586E+01   -0.14587E+01  1200   0.140E+01 0.480E-02
CGA:   3    -0.591190655187E+03   -0.37996E+00   -0.37989E+00  1200   0.201E+00 0.320E-03
CGA:   4    -0.591243276834E+03   -0.52622E-01   -0.52639E-01  1200   0.413E-01 0.827E-04
CGA:   5    -0.591255562194E+03   -0.12285E-01   -0.12286E-01  1200   0.102E-01 0.540E-05
CGA:   6    -0.591259085995E+03   -0.35238E-02   -0.35238E-02  1200   0.325E-02-0.266E-06
CGA:   7    -0.591260255215E+03   -0.11692E-02   -0.11691E-02  1200   0.966E-03 0.542E-05
CGA:   8    -0.591260601046E+03   -0.34583E-03   -0.34581E-03  1200   0.227E-03 0.135E-05
CGA:   9    -0.591260680777E+03   -0.79731E-04   -0.79741E-04  1200   0.497E-04-0.108E-05
CGA:  10    -0.591260698958E+03   -0.18181E-04   -0.18171E-04  1200   0.112E-04 0.409E-06
CGA:  11    -0.591260703331E+03   -0.43724E-05   -0.43533E-05  1200   0.282E-05 0.466E-06
  11 F= -.59126070E+03 E0= -.59126070E+03  d E =-.175292E+00
       N       E                     dE             d eps       ncg     rms          ort
SDA:   1    -0.590434511506E+03    0.82619E+00    0.00000E+00  1200   0.200E+01 0.000E+00
CGA:   2    -0.591122978337E+03   -0.68847E+00   -0.68846E+00  1200   0.616E+00-0.384E-03
CGA:   3    -0.591288667939E+03   -0.16569E+00   -0.16572E+00  1200   0.887E-01 0.204E-04
CGA:   4    -0.591312083276E+03   -0.23415E-01   -0.23413E-01  1200   0.188E-01-0.108E-04
CGA:   5    -0.591317605290E+03   -0.55220E-02   -0.55224E-02  1200   0.471E-02 0.930E-05
CGA:   6    -0.591319241133E+03   -0.16358E-02   -0.16358E-02  1200   0.152E-02 0.262E-05
CGA:   7    -0.591319784749E+03   -0.54362E-03   -0.54364E-03  1200   0.459E-03-0.102E-05
CGA:   8    -0.591319947875E+03   -0.16313E-03   -0.16312E-03  1200   0.107E-03 0.743E-06
CGA:   9    -0.591319985063E+03   -0.37187E-04   -0.37182E-04  1200   0.230E-04 0.705E-06
CGA:  10    -0.591319993735E+03   -0.86727E-05   -0.86850E-05  1200   0.554E-05-0.349E-06
CGA:  11    -0.591319995964E+03   -0.22288E-05   -0.22456E-05  1200   0.158E-05-0.243E-06
  12 F= -.59132000E+03 E0= -.59132000E+03  d E =-.592926E-01
       N       E                     dE             d eps       ncg     rms          ort
SDA:   1    -0.590994916496E+03    0.32508E+00    0.00000E+00  1200   0.758E+00 0.000E+00
CGA:   2    -0.591255601151E+03   -0.26068E+00   -0.26068E+00  1200   0.233E+00-0.725E-04
CGA:   3    -0.591318416070E+03   -0.62815E-01   -0.62819E-01  1200   0.335E-01-0.181E-04
CGA:   4    -0.591327252058E+03   -0.88360E-02   -0.88355E-02  1200   0.712E-02-0.337E-05
CGA:   5    -0.591329338194E+03   -0.20861E-02   -0.20864E-02  1200   0.178E-02 0.624E-05
CGA:   6    -0.591329956286E+03   -0.61809E-03   -0.61808E-03  1200   0.574E-03 0.110E-05
CGA:   7    -0.591330162234E+03   -0.20595E-03   -0.20597E-03  1200   0.175E-03-0.873E-06
CGA:   8    -0.591330224038E+03   -0.61804E-04   -0.61799E-04  1200   0.405E-04 0.392E-06
CGA:   9    -0.591330238080E+03   -0.14042E-04   -0.14040E-04  1200   0.869E-05 0.410E-06
CGA:  10    -0.591330241400E+03   -0.33204E-05   -0.33292E-05  1200   0.215E-05-0.217E-06
  13 F= -.59133024E+03 E0= -.59133024E+03  d E =-.695381E-01
       N       E                     dE             d eps       ncg     rms          ort
SDA:   1    -0.591048465474E+03    0.28177E+00    0.00000E+00  1200   0.752E+00 0.000E+00
CGA:   2    -0.591301076977E+03   -0.25261E+00   -0.25261E+00  1200   0.231E+00-0.723E-04
CGA:   3    -0.591363713392E+03   -0.62636E-01   -0.62642E-01  1200   0.337E-01 0.407E-05
CGA:   4    -0.591372723398E+03   -0.90100E-02   -0.90101E-02  1200   0.737E-02 0.201E-05
CGA:   5    -0.591374898319E+03   -0.21749E-02   -0.21752E-02  1200   0.190E-02 0.607E-05
CGA:   6    -0.591375563225E+03   -0.66491E-03   -0.66488E-03  1200   0.625E-03 0.207E-05
CGA:   7    -0.591375788530E+03   -0.22530E-03   -0.22531E-03  1200   0.190E-03-0.300E-06
CGA:   8    -0.591375855977E+03   -0.67448E-04   -0.67441E-04  1200   0.448E-04 0.394E-06
CGA:   9    -0.591375871516E+03   -0.15539E-04   -0.15536E-04  1200   0.974E-05 0.376E-06
CGA:  10    -0.591375875276E+03   -0.37600E-05   -0.37712E-05  1200   0.251E-05-0.265E-06
  14 F= -.59137588E+03 E0= -.59137588E+03  d E =-.456339E-01
       N       E                     dE             d eps       ncg     rms          ort
SDA:   1    -0.589515498612E+03    0.18604E+01    0.00000E+00  1200   0.438E+01 0.000E+00
CGA:   2    -0.590985268458E+03   -0.14698E+01   -0.14697E+01  1200   0.135E+01-0.142E-02
CGA:   3    -0.591349901681E+03   -0.36463E+00   -0.36477E+00  1200   0.196E+00 0.476E-03
CGA:   4    -0.591402503412E+03   -0.52602E-01   -0.52601E-01  1200   0.427E-01 0.227E-05
CGA:   5    -0.591415107287E+03   -0.12604E-01   -0.12604E-01  1200   0.110E-01 0.129E-04
CGA:   6    -0.591418942808E+03   -0.38355E-02   -0.38354E-02  1200   0.360E-02 0.915E-05
CGA:   7    -0.591420242544E+03   -0.12997E-02   -0.12997E-02  1200   0.110E-02 0.118E-05
CGA:   8    -0.591420633592E+03   -0.39105E-03   -0.39103E-03  1200   0.260E-03 0.115E-05
CGA:   9    -0.591420724301E+03   -0.90710E-04   -0.90701E-04  1200   0.570E-04 0.801E-06
CGA:  10    -0.591420745894E+03   -0.21593E-04   -0.21623E-04  1200   0.142E-04-0.748E-06
CGA:  11    -0.591420751632E+03   -0.57379E-05   -0.57765E-05  1200   0.407E-05-0.538E-06
CGA:  12    -0.591420753188E+03   -0.15563E-05   -0.15635E-05  1200   0.111E-05-0.135E-06
  15 F= -.59142075E+03 E0= -.59142075E+03  d E =-.905118E-01
       N       E                     dE             d eps       ncg     rms          ort
SDA:   1    -0.591290479956E+03    0.13027E+00    0.00000E+00  1200   0.391E+00 0.000E+00
CGA:   2    -0.591416615656E+03   -0.12614E+00   -0.12614E+00  1200   0.122E+00-0.120E-04
CGA:   3    -0.591449590393E+03   -0.32975E-01   -0.32976E-01  1200   0.178E-01-0.199E-05
CGA:   4    -0.591454294654E+03   -0.47043E-02   -0.47045E-02  1200   0.384E-02 0.323E-05
CGA:   5    -0.591455419418E+03   -0.11248E-02   -0.11250E-02  1200   0.926E-03 0.432E-05
CGA:   6    -0.591455741964E+03   -0.32255E-03   -0.32254E-03  1200   0.295E-03 0.592E-06
CGA:   7    -0.591455848512E+03   -0.10655E-03   -0.10655E-03  1200   0.907E-04 0.584E-07
CGA:   8    -0.591455881062E+03   -0.32551E-04   -0.32543E-04  1200   0.218E-04 0.436E-06
CGA:   9    -0.591455888737E+03   -0.76750E-05   -0.76712E-05  1200   0.478E-05 0.287E-06
CGA:  10    -0.591455890609E+03   -0.18717E-05   -0.18793E-05  1200   0.124E-05-0.163E-06
  16 F= -.59145589E+03 E0= -.59145589E+03  d E =-.351374E-01
       N       E                     dE             d eps       ncg     rms          ort
SDA:   1    -0.590045842653E+03    0.14100E+01    0.00000E+00  1200   0.352E+01 0.000E+00
CGA:   2    -0.591180489206E+03   -0.11346E+01   -0.11346E+01  1200   0.110E+01-0.364E-03
CGA:   3    -0.591477334198E+03   -0.29684E+00   -0.29692E+00  1200   0.161E+00 0.218E-03
CGA:   4    -0.591519814196E+03   -0.42480E-01   -0.42480E-01  1200   0.344E-01 0.476E-05
CGA:   5    -0.591529934178E+03   -0.10120E-01   -0.10120E-01  1200   0.830E-02 0.105E-04
CGA:   6    -0.591532829012E+03   -0.28948E-02   -0.28948E-02  1200   0.264E-02 0.371E-05
CGA:   7    -0.591533783674E+03   -0.95466E-03   -0.95463E-03  1200   0.809E-03 0.140E-05
CGA:   8    -0.591534075222E+03   -0.29155E-03   -0.29151E-03  1200   0.195E-03 0.165E-05
CGA:   9    -0.591534144353E+03   -0.69131E-04   -0.69119E-04  1200   0.431E-04 0.762E-06
CGA:  10    -0.591534160689E+03   -0.16336E-04   -0.16354E-04  1200   0.106E-04-0.464E-06
CGA:  11    -0.591534164998E+03   -0.43083E-05   -0.43262E-05  1200   0.300E-05-0.252E-06
  17 F= -.59153416E+03 E0= -.59153416E+03  d E =-.113412E+00
       N       E                     dE             d eps       ncg     rms          ort
SDA:   1    -0.585626172583E+03    0.59080E+01    0.00000E+00  1200   0.141E+02 0.000E+00
CGA:   2    -0.590151643074E+03   -0.45255E+01   -0.45253E+01  1200   0.442E+01-0.357E-02
CGA:   3    -0.591338978838E+03   -0.11873E+01   -0.11883E+01  1200   0.647E+00 0.371E-02
CGA:   4    -0.591510615321E+03   -0.17164E+00   -0.17162E+00  1200   0.138E+00 0.107E-04
CGA:   5    -0.591551322057E+03   -0.40707E-01   -0.40708E-01  1200   0.335E-01 0.219E-04
CGA:   6    -0.591562990131E+03   -0.11668E-01   -0.11668E-01  1200   0.107E-01 0.172E-04
CGA:   7    -0.591566862281E+03   -0.38721E-02   -0.38720E-02  1200   0.329E-02 0.578E-05
CGA:   8    -0.591568052258E+03   -0.11900E-02   -0.11899E-02  1200   0.794E-03 0.420E-05
CGA:   9    -0.591568335483E+03   -0.28322E-03   -0.28320E-03  1200   0.176E-03 0.119E-05
CGA:  10    -0.591568401642E+03   -0.66159E-04   -0.66187E-04  1200   0.425E-04-0.815E-06
CGA:  11    -0.591568418943E+03   -0.17301E-04   -0.17328E-04  1200   0.119E-04-0.400E-06
CGA:  12    -0.591568423593E+03   -0.46500E-05   -0.46523E-05  1200   0.327E-05-0.499E-07
  18 F= -.59156842E+03 E0= -.59156842E+03  d E =-.147670E+00
       N       E                     dE             d eps       ncg     rms          ort
SDA:   1    -0.591073391192E+03    0.49503E+00    0.00000E+00  1200   0.119E+01 0.000E+00
CGA:   2    -0.591456108342E+03   -0.38272E+00   -0.38272E+00  1200   0.370E+00 0.124E-03
CGA:   3    -0.591556197276E+03   -0.10009E+00   -0.10009E+00  1200   0.541E-01 0.267E-04
CGA:   4    -0.591570456131E+03   -0.14259E-01   -0.14258E-01  1200   0.117E-01-0.190E-05
CGA:   5    -0.591573881233E+03   -0.34251E-02   -0.34248E-02  1200   0.281E-02-0.613E-05
CGA:   6    -0.591574858399E+03   -0.97717E-03   -0.97716E-03  1200   0.888E-03 0.876E-06
CGA:   7    -0.591575179060E+03   -0.32066E-03   -0.32065E-03  1200   0.274E-03 0.721E-06
CGA:   8    -0.591575277771E+03   -0.98711E-04   -0.98724E-04  1200   0.666E-04-0.655E-06
CGA:   9    -0.591575301456E+03   -0.23686E-04   -0.23692E-04  1200   0.148E-04-0.412E-06
CGA:  10    -0.591575306864E+03   -0.54081E-05   -0.54029E-05  1200   0.343E-05 0.206E-06
CGA:  11    -0.591575308234E+03   -0.13694E-05   -0.13622E-05  1200   0.925E-06 0.150E-06
  19 F= -.59157531E+03 E0= -.59157531E+03  d E =-.154555E+00
       N       E                     dE             d eps       ncg     rms          ort
SDA:   1    -0.590810508050E+03    0.76480E+00    0.00000E+00  1200   0.187E+01 0.000E+00
CGA:   2    -0.591457029727E+03   -0.64652E+00   -0.64652E+00  1200   0.548E+00 0.188E-03
CGA:   3    -0.591604021556E+03   -0.14699E+00   -0.14701E+00  1200   0.760E-01 0.224E-04
CGA:   4    -0.591624408608E+03   -0.20387E-01   -0.20386E-01  1200   0.173E-01 0.292E-07
CGA:   5    -0.591629334606E+03   -0.49260E-02   -0.49263E-02  1200   0.442E-02 0.551E-05
CGA:   6    -0.591630864425E+03   -0.15298E-02   -0.15298E-02  1200   0.136E-02 0.378E-06
CGA:   7    -0.591631370218E+03   -0.50579E-03   -0.50580E-03  1200   0.433E-03-0.103E-07
CGA:   8    -0.591631521544E+03   -0.15133E-03   -0.15131E-03  1200   0.104E-03 0.154E-05
CGA:   9    -0.591631557622E+03   -0.36077E-04   -0.36075E-04  1200   0.235E-04 0.414E-06
CGA:  10    -0.591631566234E+03   -0.86120E-05   -0.86195E-05  1200   0.571E-05-0.273E-06
CGA:  11    -0.591631568472E+03   -0.22386E-05   -0.22439E-05  1200   0.149E-05-0.992E-07
  20 F= -.59163157E+03 E0= -.59163157E+03  d E =-.562602E-01
       N       E                     dE             d eps       ncg     rms          ort
SDA:   1    -0.590981641609E+03    0.64992E+00    0.00000E+00  1200   0.152E+01 0.000E+00
CGA:   2    -0.591505743393E+03   -0.52410E+00   -0.52410E+00  1200   0.445E+00 0.136E-03
CGA:   3    -0.591625112192E+03   -0.11937E+00   -0.11938E+00  1200   0.617E-01 0.121E-04
CGA:   4    -0.591641670899E+03   -0.16559E-01   -0.16558E-01  1200   0.141E-01 0.502E-06
CGA:   5    -0.591645676849E+03   -0.40060E-02   -0.40062E-02  1200   0.360E-02 0.461E-05
CGA:   6    -0.591646922549E+03   -0.12457E-02   -0.12457E-02  1200   0.111E-02-0.618E-07
CGA:   7    -0.591647334995E+03   -0.41245E-03   -0.41245E-03  1200   0.353E-03-0.120E-07
CGA:   8    -0.591647458330E+03   -0.12334E-03   -0.12332E-03  1200   0.851E-04 0.137E-05
CGA:   9    -0.591647487757E+03   -0.29427E-04   -0.29424E-04  1200   0.192E-04 0.336E-06
CGA:  10    -0.591647494793E+03   -0.70368E-05   -0.70433E-05  1200   0.467E-05-0.242E-06
CGA:  11    -0.591647496621E+03   -0.18276E-05   -0.18325E-05  1200   0.122E-05-0.836E-07
  21 F= -.59164750E+03 E0= -.59164750E+03  d E =-.721884E-01
       N       E                     dE             d eps       ncg     rms          ort
SDA:   1    -0.591385547964E+03    0.26195E+00    0.00000E+00  1200   0.730E+00 0.000E+00
CGA:   2    -0.591615314134E+03   -0.22977E+00   -0.22976E+00  1200   0.222E+00-0.684E-04
CGA:   3    -0.591676320878E+03   -0.61007E-01   -0.61011E-01  1200   0.330E-01 0.693E-05
CGA:   4    -0.591684988174E+03   -0.86673E-02   -0.86667E-02  1200   0.710E-02-0.177E-05
CGA:   5    -0.591687027795E+03   -0.20396E-02   -0.20398E-02  1200   0.169E-02 0.386E-05
CGA:   6    -0.591687609055E+03   -0.58126E-03   -0.58124E-03  1200   0.527E-03 0.232E-05
CGA:   7    -0.591687802090E+03   -0.19304E-03   -0.19304E-03  1200   0.167E-03-0.105E-06
CGA:   8    -0.591687861907E+03   -0.59817E-04   -0.59817E-04  1200   0.418E-04 0.363E-07
CGA:   9    -0.591687876615E+03   -0.14708E-04   -0.14704E-04  1200   0.924E-05 0.256E-06
CGA:  10    -0.591687880141E+03   -0.35263E-05   -0.35301E-05  1200   0.228E-05-0.933E-07
  22 F= -.59168788E+03 E0= -.59168788E+03  d E =-.403835E-01
       N       E                     dE             d eps       ncg     rms          ort
SDA:   1    -0.590315864492E+03    0.13720E+01    0.00000E+00  1200   0.340E+01 0.000E+00
CGA:   2    -0.591385120008E+03   -0.10693E+01   -0.10692E+01  1200   0.104E+01-0.100E-02
CGA:   3    -0.591669784258E+03   -0.28466E+00   -0.28474E+00  1200   0.154E+00 0.270E-03
CGA:   4    -0.591710360469E+03   -0.40576E-01   -0.40570E-01  1200   0.331E-01-0.231E-04
CGA:   5    -0.591719888103E+03   -0.95276E-02   -0.95278E-02  1200   0.788E-02 0.519E-05
CGA:   6    -0.591722604117E+03   -0.27160E-02   -0.27159E-02  1200   0.247E-02 0.565E-05
CGA:   7    -0.591723506777E+03   -0.90266E-03   -0.90264E-03  1200   0.780E-03 0.554E-06
CGA:   8    -0.591723786211E+03   -0.27943E-03   -0.27943E-03  1200   0.195E-03 0.203E-06
CGA:   9    -0.591723855138E+03   -0.68927E-04   -0.68918E-04  1200   0.431E-04 0.490E-06
CGA:  10    -0.591723871435E+03   -0.16297E-04   -0.16305E-04  1200   0.105E-04-0.195E-06
CGA:  11    -0.591723875751E+03   -0.43163E-05   -0.43405E-05  1200   0.309E-05-0.314E-06
  23 F= -.59172388E+03 E0= -.59172388E+03  d E =-.763791E-01
       N       E                     dE             d eps       ncg     rms          ort
SDA:   1    -0.591239983190E+03    0.48389E+00    0.00000E+00  1200   0.124E+01 0.000E+00
CGA:   2    -0.591645516032E+03   -0.40553E+00   -0.40552E+00  1200   0.387E+00-0.257E-03
CGA:   3    -0.591750151241E+03   -0.10464E+00   -0.10465E+00  1200   0.548E-01 0.352E-04
CGA:   4    -0.591764782134E+03   -0.14631E-01   -0.14630E-01  1200   0.122E-01-0.218E-05
CGA:   5    -0.591768252230E+03   -0.34701E-02   -0.34703E-02  1200   0.305E-02 0.418E-05
CGA:   6    -0.591769307309E+03   -0.10551E-02   -0.10550E-02  1200   0.980E-03 0.568E-05
CGA:   7    -0.591769661771E+03   -0.35446E-03   -0.35444E-03  1200   0.312E-03 0.671E-06
CGA:   8    -0.591769772684E+03   -0.11091E-03   -0.11091E-03  1200   0.765E-04-0.943E-07
CGA:   9    -0.591769799532E+03   -0.26848E-04   -0.26845E-04  1200   0.168E-04 0.251E-06
CGA:  10    -0.591769805811E+03   -0.62787E-05   -0.62840E-05  1200   0.412E-05-0.150E-06
CGA:  11    -0.591769807507E+03   -0.16962E-05   -0.17119E-05  1200   0.125E-05-0.194E-06
  24 F= -.59176981E+03 E0= -.59176981E+03  d E =-.459318E-01
       N       E                     dE             d eps       ncg     rms          ort
SDA:   1    -0.591094892878E+03    0.67491E+00    0.00000E+00  1200   0.162E+01 0.000E+00
CGA:   2    -0.591625670573E+03   -0.53078E+00   -0.53075E+00  1200   0.507E+00-0.415E-03
CGA:   3    -0.591762731286E+03   -0.13706E+00   -0.13708E+00  1200   0.716E-01 0.644E-04
CGA:   4    -0.591781877690E+03   -0.19146E-01   -0.19146E-01  1200   0.159E-01-0.357E-05
CGA:   5    -0.591786406756E+03   -0.45291E-02   -0.45293E-02  1200   0.398E-02 0.437E-05
CGA:   6    -0.591787782868E+03   -0.13761E-02   -0.13760E-02  1200   0.128E-02 0.668E-05
CGA:   7    -0.591788245130E+03   -0.46226E-03   -0.46224E-03  1200   0.407E-03 0.993E-06
CGA:   8    -0.591788389996E+03   -0.14487E-03   -0.14487E-03  1200   0.100E-03-0.287E-07
CGA:   9    -0.591788425217E+03   -0.35221E-04   -0.35218E-04  1200   0.221E-04 0.240E-06
CGA:  10    -0.591788433458E+03   -0.82414E-05   -0.82471E-05  1200   0.542E-05-0.168E-06
CGA:  11    -0.591788435684E+03   -0.22256E-05   -0.22418E-05  1200   0.163E-05-0.216E-06
  25 F= -.59178844E+03 E0= -.59178844E+03  d E =-.645599E-01
       N       E                     dE             d eps       ncg     rms          ort
SDA:   1    -0.591043283502E+03    0.74515E+00    0.00000E+00  1200   0.182E+01 0.000E+00
CGA:   2    -0.591645891000E+03   -0.60261E+00   -0.60260E+00  1200   0.578E+00-0.343E-03
CGA:   3    -0.591802627373E+03   -0.15674E+00   -0.15677E+00  1200   0.815E-01 0.379E-04
CGA:   4    -0.591824945981E+03   -0.22319E-01   -0.22316E-01  1200   0.175E-01-0.157E-04
CGA:   5    -0.591830130644E+03   -0.51847E-02   -0.51849E-02  1200   0.457E-02 0.551E-05
CGA:   6    -0.591831732858E+03   -0.16022E-02   -0.16022E-02  1200   0.147E-02 0.332E-05
CGA:   7    -0.591832265774E+03   -0.53292E-03   -0.53291E-03  1200   0.452E-03 0.245E-06
CGA:   8    -0.591832424859E+03   -0.15908E-03   -0.15908E-03  1200   0.108E-03 0.303E-06
CGA:   9    -0.591832462724E+03   -0.37865E-04   -0.37859E-04  1200   0.233E-04 0.459E-06
CGA:  10    -0.591832471526E+03   -0.88019E-05   -0.88051E-05  1200   0.594E-05-0.896E-07
CGA:  11    -0.591832473970E+03   -0.24448E-05   -0.24612E-05  1200   0.178E-05-0.224E-06
  26 F= -.59183247E+03 E0= -.59183247E+03  d E =-.440383E-01
       N       E                     dE             d eps       ncg     rms          ort
SDA:   1    -0.591533299980E+03    0.29917E+00    0.00000E+00  1200   0.710E+00 0.000E+00
CGA:   2    -0.591767503646E+03   -0.23420E+00   -0.23420E+00  1200   0.225E+00-0.674E-04
CGA:   3    -0.591828544594E+03   -0.61041E-01   -0.61046E-01  1200   0.316E-01-0.703E-05
CGA:   4    -0.591837186664E+03   -0.86421E-02   -0.86414E-02  1200   0.676E-02-0.575E-05
CGA:   5    -0.591839191082E+03   -0.20044E-02   -0.20046E-02  1200   0.176E-02 0.385E-05
CGA:   6    -0.591839808262E+03   -0.61718E-03   -0.61716E-03  1200   0.566E-03 0.165E-05
CGA:   7    -0.591840013370E+03   -0.20511E-03   -0.20511E-03  1200   0.174E-03 0.141E-07
CGA:   8    -0.591840074607E+03   -0.61237E-04   -0.61236E-04  1200   0.415E-04 0.131E-06
CGA:   9    -0.591840089160E+03   -0.14553E-04   -0.14550E-04  1200   0.895E-05 0.270E-06
CGA:  10    -0.591840092553E+03   -0.33937E-05   -0.33951E-05  1200   0.230E-05-0.396E-07
  27 F= -.59184009E+03 E0= -.59184009E+03  d E =-.516569E-01
       N       E                     dE             d eps       ncg     rms          ort
SDA:   1    -0.591634592603E+03    0.20550E+00    0.00000E+00  1200   0.540E+00 0.000E+00
CGA:   2    -0.591803718745E+03   -0.16913E+00   -0.16913E+00  1200   0.174E+00-0.305E-04
CGA:   3    -0.591851169115E+03   -0.47450E-01   -0.47453E-01  1200   0.255E-01-0.406E-05
CGA:   4    -0.591857881114E+03   -0.67120E-02   -0.67115E-02  1200   0.497E-02-0.516E-05
CGA:   5    -0.591859319697E+03   -0.14386E-02   -0.14388E-02  1200   0.112E-02 0.386E-05
CGA:   6    -0.591859705303E+03   -0.38561E-03   -0.38560E-03  1200   0.344E-03 0.113E-05
CGA:   7    -0.591859830691E+03   -0.12539E-03   -0.12539E-03  1200   0.109E-03 0.428E-07
CGA:   8    -0.591859870057E+03   -0.39365E-04   -0.39358E-04  1200   0.275E-04 0.280E-06
CGA:   9    -0.591859880010E+03   -0.99530E-05   -0.99488E-05  1200   0.617E-05 0.185E-06
CGA:  10    -0.591859882387E+03   -0.23777E-05   -0.23805E-05  1200   0.156E-05-0.696E-07
  28 F= -.59185988E+03 E0= -.59185988E+03  d E =-.197898E-01
       N       E                     dE             d eps       ncg     rms          ort
SDA:   1    -0.591825872711E+03    0.34007E-01    0.00000E+00  1200   0.859E-01 0.000E+00
CGA:   2    -0.591852731662E+03   -0.26859E-01   -0.26859E-01  1200   0.276E-01 0.193E-05
CGA:   3    -0.591860272179E+03   -0.75405E-02   -0.75403E-02  1200   0.404E-02-0.596E-05
CGA:   4    -0.591861336646E+03   -0.10645E-02   -0.10643E-02  1200   0.788E-03-0.173E-05
CGA:   5    -0.591861564252E+03   -0.22761E-03   -0.22768E-03  1200   0.176E-03 0.159E-05
CGA:   6    -0.591861625040E+03   -0.60788E-04   -0.60785E-04  1200   0.541E-04 0.356E-06
CGA:   7    -0.591861644839E+03   -0.19799E-04   -0.19800E-04  1200   0.173E-04-0.226E-07
CGA:   8    -0.591861651038E+03   -0.61994E-05   -0.61972E-05  1200   0.434E-05 0.917E-07
CGA:   9    -0.591861652602E+03   -0.15635E-05   -0.15620E-05  1200   0.966E-06 0.690E-07
  29 F= -.59186165E+03 E0= -.59186165E+03  d E =-.215600E-01
       N       E                     dE             d eps       ncg     rms          ort
SDA:   1    -0.591733371468E+03    0.12828E+00    0.00000E+00  1200   0.354E+00 0.000E+00
CGA:   2    -0.591848715966E+03   -0.11534E+00   -0.11534E+00  1200   0.109E+00 0.138E-04
CGA:   3    -0.591878034561E+03   -0.29319E-01   -0.29319E-01  1200   0.146E-01-0.857E-05
CGA:   4    -0.591881932255E+03   -0.38977E-02   -0.38975E-02  1200   0.308E-02-0.320E-05
CGA:   5    -0.591882784264E+03   -0.85201E-03   -0.85227E-03  1200   0.729E-03 0.478E-05
CGA:   6    -0.591883031106E+03   -0.24684E-03   -0.24683E-03  1200   0.222E-03 0.190E-05
CGA:   7    -0.591883112868E+03   -0.81762E-04   -0.81767E-04  1200   0.711E-04-0.137E-06
CGA:   8    -0.591883138343E+03   -0.25476E-04   -0.25475E-04  1200   0.177E-04 0.331E-07
CGA:   9    -0.591883144531E+03   -0.61874E-05   -0.61841E-05  1200   0.379E-05 0.195E-06
CGA:  10    -0.591883145943E+03   -0.14123E-05   -0.14124E-05  1200   0.925E-06-0.351E-09
  30 F= -.59188315E+03 E0= -.59188315E+03  d E =-.214933E-01
       N       E                     dE             d eps       ncg     rms          ort
SDA:   1    -0.590565657677E+03    0.13175E+01    0.00000E+00  1200   0.319E+01 0.000E+00
CGA:   2    -0.591604582557E+03   -0.10389E+01   -0.10389E+01  1200   0.986E+00-0.162E-04
CGA:   3    -0.591868911632E+03   -0.26433E+00   -0.26439E+00  1200   0.132E+00 0.226E-03
CGA:   4    -0.591904227541E+03   -0.35316E-01   -0.35316E-01  1200   0.278E-01-0.255E-05
CGA:   5    -0.591911935510E+03   -0.77080E-02   -0.77086E-02  1200   0.660E-02 0.133E-04
CGA:   6    -0.591914166308E+03   -0.22308E-02   -0.22307E-02  1200   0.202E-02 0.724E-05
CGA:   7    -0.591914904922E+03   -0.73861E-03   -0.73859E-03  1200   0.645E-03 0.603E-06
CGA:   8    -0.591915136378E+03   -0.23146E-03   -0.23145E-03  1200   0.161E-03 0.230E-06
CGA:   9    -0.591915193340E+03   -0.56961E-04   -0.56950E-04  1200   0.349E-04 0.593E-06
CGA:  10    -0.591915206194E+03   -0.12854E-04   -0.12855E-04  1200   0.833E-05 0.784E-08
CGA:  11    -0.591915209558E+03   -0.33635E-05   -0.33803E-05  1200   0.237E-05-0.238E-06
  31 F= -.59191521E+03 E0= -.59191521E+03  d E =-.535570E-01
       N       E                     dE             d eps       ncg     rms          ort
SDA:   1    -0.591456920601E+03    0.45829E+00    0.00000E+00  1200   0.115E+01 0.000E+00
CGA:   2    -0.591826291562E+03   -0.36937E+00   -0.36937E+00  1200   0.352E+00 0.775E-04
CGA:   3    -0.591921256955E+03   -0.94965E-01   -0.94968E-01  1200   0.512E-01-0.355E-05
CGA:   4    -0.591934848816E+03   -0.13592E-01   -0.13592E-01  1200   0.103E-01-0.541E-05
CGA:   5    -0.591937773642E+03   -0.29248E-02   -0.29252E-02  1200   0.233E-02 0.774E-05
CGA:   6    -0.591938562853E+03   -0.78921E-03   -0.78919E-03  1200   0.701E-03 0.349E-05
CGA:   7    -0.591938822611E+03   -0.25976E-03   -0.25975E-03  1200   0.223E-03 0.219E-06
CGA:   8    -0.591938903487E+03   -0.80876E-04   -0.80878E-04  1200   0.564E-04-0.642E-07
CGA:   9    -0.591938923461E+03   -0.19975E-04   -0.19970E-04  1200   0.120E-04 0.262E-06
CGA:  10    -0.591938927937E+03   -0.44758E-05   -0.44734E-05  1200   0.283E-05 0.563E-07
  32 F= -.59193893E+03 E0= -.59193893E+03  d E =-.237184E-01
       N       E                     dE             d eps       ncg     rms          ort
SDA:   1    -0.591918467833E+03    0.20456E-01    0.00000E+00  1200   0.507E-01 0.000E+00
CGA:   2    -0.591934711827E+03   -0.16244E-01   -0.16244E-01  1200   0.155E-01 0.763E-05
CGA:   3    -0.591938893084E+03   -0.41813E-02   -0.41810E-02  1200   0.225E-02-0.393E-05
CGA:   4    -0.591939491449E+03   -0.59836E-03   -0.59826E-03  1200   0.455E-03-0.149E-05
CGA:   5    -0.591939620105E+03   -0.12866E-03   -0.12874E-03  1200   0.102E-03 0.166E-05
CGA:   6    -0.591939654821E+03   -0.34715E-04   -0.34710E-04  1200   0.308E-04 0.586E-06
CGA:   7    -0.591939666378E+03   -0.11557E-04   -0.11560E-04  1200   0.992E-05-0.472E-07
CGA:   8    -0.591939669971E+03   -0.35928E-05   -0.35940E-05  1200   0.252E-05-0.467E-07
  33 F= -.59193967E+03 E0= -.59193967E+03  d E =-.244604E-01
       N       E                     dE             d eps       ncg     rms          ort
SDA:   1    -0.591674678642E+03    0.26499E+00    0.00000E+00  1200   0.664E+00 0.000E+00
CGA:   2    -0.591893733124E+03   -0.21905E+00   -0.21905E+00  1200   0.212E+00 0.362E-04
CGA:   3    -0.591949986620E+03   -0.56253E-01   -0.56253E-01  1200   0.290E-01-0.163E-04
CGA:   4    -0.591957696678E+03   -0.77101E-02   -0.77099E-02  1200   0.613E-02-0.336E-05
CGA:   5    -0.591959425895E+03   -0.17292E-02   -0.17294E-02  1200   0.142E-02 0.398E-05
CGA:   6    -0.591959918554E+03   -0.49266E-03   -0.49261E-03  1200   0.441E-03 0.245E-05
CGA:   7    -0.591960078207E+03   -0.15965E-03   -0.15965E-03  1200   0.139E-03 0.946E-07
CGA:   8    -0.591960127427E+03   -0.49220E-04   -0.49217E-04  1200   0.341E-04 0.155E-06
CGA:   9    -0.591960139407E+03   -0.11979E-04   -0.11975E-04  1200   0.722E-05 0.231E-06
CGA:  10    -0.591960142119E+03   -0.27123E-05   -0.27139E-05  1200   0.176E-05-0.429E-07
  34 F= -.59196014E+03 E0= -.59196014E+03  d E =-.204721E-01
       N       E                     dE             d eps       ncg     rms          ort
SDA:   1    -0.591152268835E+03    0.80787E+00    0.00000E+00  1200   0.191E+01 0.000E+00
CGA:   2    -0.591782351608E+03   -0.63008E+00   -0.63008E+00  1200   0.610E+00 0.534E-04
CGA:   3    -0.591944304624E+03   -0.16195E+00   -0.16196E+00  1200   0.833E-01 0.756E-05
CGA:   4    -0.591966504285E+03   -0.22200E-01   -0.22199E-01  1200   0.176E-01-0.540E-05
CGA:   5    -0.591971478253E+03   -0.49740E-02   -0.49742E-02  1200   0.406E-02 0.593E-05
CGA:   6    -0.591972891364E+03   -0.14131E-02   -0.14130E-02  1200   0.126E-02 0.482E-05
CGA:   7    -0.591973348123E+03   -0.45676E-03   -0.45674E-03  1200   0.397E-03 0.653E-06
CGA:   8    -0.591973488472E+03   -0.14035E-03   -0.14034E-03  1200   0.973E-04 0.310E-06
CGA:   9    -0.591973522748E+03   -0.34276E-04   -0.34268E-04  1200   0.207E-04 0.398E-06
CGA:  10    -0.591973530458E+03   -0.77102E-05   -0.77129E-05  1200   0.498E-05-0.687E-07
CGA:  11    -0.591973532493E+03   -0.20346E-05   -0.20505E-05  1200   0.143E-05-0.200E-06
  35 F= -.59197353E+03 E0= -.59197353E+03  d E =-.338625E-01
       N       E                     dE             d eps       ncg     rms          ort
SDA:   1    -0.591533869564E+03    0.43966E+00    0.00000E+00  1200   0.106E+01 0.000E+00
CGA:   2    -0.591892842481E+03   -0.35897E+00   -0.35897E+00  1200   0.339E+00 0.312E-04
CGA:   3    -0.591981840532E+03   -0.88998E-01   -0.89000E-01  1200   0.459E-01-0.624E-05
CGA:   4    -0.591994172901E+03   -0.12332E-01   -0.12332E-01  1200   0.992E-02-0.233E-05
CGA:   5    -0.591996975310E+03   -0.28024E-02   -0.28025E-02  1200   0.241E-02 0.253E-05
CGA:   6    -0.591997816362E+03   -0.84105E-03   -0.84102E-03  1200   0.754E-03 0.167E-05
CGA:   7    -0.591998093046E+03   -0.27668E-03   -0.27669E-03  1200   0.238E-03-0.190E-07
CGA:   8    -0.591998176922E+03   -0.83877E-04   -0.83871E-04  1200   0.587E-04 0.324E-06
CGA:   9    -0.591998197521E+03   -0.20598E-04   -0.20593E-04  1200   0.126E-04 0.322E-06
CGA:  10    -0.591998202261E+03   -0.47403E-05   -0.47418E-05  1200   0.313E-05-0.408E-07
  36 F= -.59199820E+03 E0= -.59199820E+03  d E =-.246698E-01
       N       E                     dE             d eps       ncg     rms          ort
SDA:   1    -0.591859268216E+03    0.13893E+00    0.00000E+00  1200   0.326E+00 0.000E+00
CGA:   2    -0.591969396550E+03   -0.11013E+00   -0.11013E+00  1200   0.104E+00 0.489E-06
CGA:   3    -0.591996749543E+03   -0.27353E-01   -0.27352E-01  1200   0.141E-01-0.125E-04
CGA:   4    -0.592000534959E+03   -0.37854E-02   -0.37853E-02  1200   0.305E-02-0.134E-05
CGA:   5    -0.592001395721E+03   -0.86076E-03   -0.86082E-03  1200   0.739E-03 0.132E-05
CGA:   6    -0.592001654087E+03   -0.25837E-03   -0.25836E-03  1200   0.231E-03 0.600E-06
CGA:   7    -0.592001739291E+03   -0.85204E-04   -0.85208E-04  1200   0.730E-04-0.133E-06
CGA:   8    -0.592001765003E+03   -0.25712E-04   -0.25709E-04  1200   0.180E-04 0.146E-06
CGA:   9    -0.592001771298E+03   -0.62954E-05   -0.62932E-05  1200   0.384E-05 0.170E-06
CGA:  10    -0.592001772755E+03   -0.14565E-05   -0.14570E-05  1200   0.965E-06-0.184E-07
  37 F= -.59200177E+03 E0= -.59200177E+03  d E =-.282403E-01
       N       E                     dE             d eps       ncg     rms          ort
SDA:   1    -0.591597554795E+03    0.40422E+00    0.00000E+00  1200   0.989E+00 0.000E+00
CGA:   2    -0.591922065973E+03   -0.32451E+00   -0.32451E+00  1200   0.318E+00-0.108E-03
CGA:   3    -0.592005376152E+03   -0.83310E-01   -0.83321E-01  1200   0.441E-01 0.160E-04
CGA:   4    -0.592017371184E+03   -0.11995E-01   -0.11994E-01  1200   0.901E-02-0.777E-05
CGA:   5    -0.592019958836E+03   -0.25877E-02   -0.25878E-02  1200   0.209E-02 0.346E-05
CGA:   6    -0.592020684564E+03   -0.72573E-03   -0.72568E-03  1200   0.637E-03 0.320E-05
CGA:   7    -0.592020918993E+03   -0.23443E-03   -0.23441E-03  1200   0.201E-03 0.518E-06
CGA:   8    -0.592020990838E+03   -0.71846E-04   -0.71846E-04  1200   0.499E-04-0.111E-07
CGA:   9    -0.592021008544E+03   -0.17706E-04   -0.17701E-04  1200   0.109E-04 0.263E-06
CGA:  10    -0.592021012642E+03   -0.40985E-05   -0.40972E-05  1200   0.270E-05 0.248E-07
  38 F= -.59202101E+03 E0= -.59202101E+03  d E =-.192399E-01
       N       E                     dE             d eps       ncg     rms          ort
SDA:   1    -0.591994311755E+03    0.26697E-01    0.00000E+00  1200   0.643E-01 0.000E+00
CGA:   2    -0.592015411529E+03   -0.21100E-01   -0.21100E-01  1200   0.206E-01 0.405E-05
CGA:   3    -0.592020829879E+03   -0.54184E-02   -0.54181E-02  1200   0.287E-02-0.511E-05
CGA:   4    -0.592021609040E+03   -0.77916E-03   -0.77904E-03  1200   0.585E-03-0.172E-05
CGA:   5    -0.592021777111E+03   -0.16807E-03   -0.16811E-03  1200   0.135E-03 0.892E-06
CGA:   6    -0.592021824079E+03   -0.46968E-04   -0.46957E-04  1200   0.411E-04 0.652E-06
CGA:   7    -0.592021839352E+03   -0.15273E-04   -0.15271E-04  1200   0.130E-04 0.545E-07
CGA:   8    -0.592021844027E+03   -0.46754E-05   -0.46763E-05  1200   0.326E-05-0.265E-07
  39 F= -.59202184E+03 E0= -.59202184E+03  d E =-.200713E-01
       N       E                     dE             d eps       ncg     rms          ort
SDA:   1    -0.591701422534E+03    0.32042E+00    0.00000E+00  1200   0.798E+00 0.000E+00
CGA:   2    -0.591969177772E+03   -0.26776E+00   -0.26776E+00  1200   0.252E+00-0.417E-04
CGA:   3    -0.592035056879E+03   -0.65879E-01   -0.65884E-01  1200   0.337E-01-0.145E-05
CGA:   4    -0.592044268708E+03   -0.92118E-02   -0.92114E-02  1200   0.721E-02-0.524E-05
CGA:   5    -0.592046306531E+03   -0.20378E-02   -0.20381E-02  1200   0.171E-02 0.501E-05
CGA:   6    -0.592046902777E+03   -0.59625E-03   -0.59617E-03  1200   0.521E-03 0.377E-05
CGA:   7    -0.592047094338E+03   -0.19156E-03   -0.19156E-03  1200   0.164E-03 0.154E-07
CGA:   8    -0.592047152159E+03   -0.57821E-04   -0.57825E-04  1200   0.404E-04-0.159E-06
CGA:   9    -0.592047166301E+03   -0.14142E-04   -0.14136E-04  1200   0.877E-05 0.326E-06
CGA:  10    -0.592047169597E+03   -0.32959E-05   -0.32953E-05  1200   0.221E-05 0.850E-08
  40 F= -.59204717E+03 E0= -.59204717E+03  d E =-.253256E-01
       N       E                     dE             d eps       ncg     rms          ort
SDA:   1    -0.588989499156E+03    0.30577E+01    0.00000E+00  1200   0.719E+01 0.000E+00
CGA:   2    -0.591395512839E+03   -0.24060E+01   -0.24060E+01  1200   0.227E+01-0.244E-02
CGA:   3    -0.591989142242E+03   -0.59363E+00   -0.59397E+00  1200   0.305E+00 0.108E-02
CGA:   4    -0.592072739073E+03   -0.83597E-01   -0.83589E-01  1200   0.654E-01-0.411E-04
CGA:   5    -0.592091277505E+03   -0.18538E-01   -0.18539E-01  1200   0.156E-01 0.143E-04
CGA:   6    -0.592096704811E+03   -0.54273E-02   -0.54270E-02  1200   0.476E-02 0.163E-04
CGA:   7    -0.592098449307E+03   -0.17445E-02   -0.17444E-02  1200   0.149E-02 0.225E-05
CGA:   8    -0.592098976054E+03   -0.52675E-03   -0.52675E-03  1200   0.368E-03-0.121E-06
CGA:   9    -0.592099105983E+03   -0.12993E-03   -0.12991E-03  1200   0.805E-04 0.102E-05
CGA:  10    -0.592099135995E+03   -0.30013E-04   -0.30011E-04  1200   0.201E-04 0.496E-07
CGA:  11    -0.592099144158E+03   -0.81630E-05   -0.81963E-05  1200   0.574E-05-0.467E-06
CGA:  12    -0.592099146407E+03   -0.22488E-05   -0.22604E-05  1200   0.160E-05-0.179E-06
  41 F= -.59209915E+03 E0= -.59209915E+03  d E =-.773024E-01
       N       E                     dE             d eps       ncg     rms          ort
SDA:   1    -0.579690297904E+03    0.12409E+02    0.00000E+00  1200   0.288E+02 0.000E+00
CGA:   2    -0.589260897247E+03   -0.95706E+01   -0.95699E+01  1200   0.918E+01-0.244E-01
CGA:   3    -0.591641500771E+03   -0.23806E+01   -0.23855E+01  1200   0.125E+01 0.151E-01
CGA:   4    -0.591984798224E+03   -0.34330E+00   -0.34322E+00  1200   0.270E+00-0.157E-03
CGA:   5    -0.592061800834E+03   -0.77003E-01   -0.77012E-01  1200   0.651E-01 0.876E-04
CGA:   6    -0.592084627187E+03   -0.22826E-01   -0.22825E-01  1200   0.202E-01 0.536E-04
CGA:   7    -0.592092041822E+03   -0.74146E-02   -0.74145E-02  1200   0.637E-02 0.679E-05
CGA:   8    -0.592094290049E+03   -0.22482E-02   -0.22482E-02  1200   0.157E-02-0.286E-06
CGA:   9    -0.592094847266E+03   -0.55722E-03   -0.55718E-03  1200   0.340E-03 0.185E-05
CGA:  10    -0.592094973748E+03   -0.12648E-03   -0.12648E-03  1200   0.841E-04 0.165E-06
CGA:  11    -0.592095007415E+03   -0.33667E-04   -0.33714E-04  1200   0.235E-04-0.773E-06
CGA:  12    -0.592095016721E+03   -0.93055E-05   -0.93286E-05  1200   0.647E-05-0.397E-06
CGA:  13    -0.592095019255E+03   -0.25347E-05   -0.25334E-05  1200   0.176E-05 0.328E-07
  42 F= -.59209502E+03 E0= -.59209502E+03  d E =-.731752E-01
       N       E                     dE             d eps       ncg     rms          ort
SDA:   1    -0.588633713620E+03    0.34613E+01    0.00000E+00  1200   0.803E+01 0.000E+00
CGA:   2    -0.591330730459E+03   -0.26970E+01   -0.26971E+01  1200   0.252E+01 0.313E-02
CGA:   3    -0.591991928319E+03   -0.66120E+00   -0.66128E+00  1200   0.341E+00 0.793E-03
CGA:   4    -0.592085144856E+03   -0.93217E-01   -0.93218E-01  1200   0.740E-01 0.460E-04
CGA:   5    -0.592106135160E+03   -0.20990E-01   -0.20991E-01  1200   0.178E-01-0.620E-06
CGA:   6    -0.592112404735E+03   -0.62696E-02   -0.62696E-02  1200   0.548E-02-0.139E-05
CGA:   7    -0.592114426393E+03   -0.20217E-02   -0.20215E-02  1200   0.172E-02 0.421E-05
CGA:   8    -0.592115026682E+03   -0.60029E-03   -0.60027E-03  1200   0.423E-03 0.231E-05
CGA:   9    -0.592115175572E+03   -0.14889E-03   -0.14889E-03  1200   0.923E-04-0.577E-06
CGA:  10    -0.592115209787E+03   -0.34215E-04   -0.34218E-04  1200   0.226E-04-0.102E-06
CGA:  11    -0.592115218616E+03   -0.88290E-05   -0.88063E-05  1200   0.594E-05 0.513E-06
CGA:  12    -0.592115220985E+03   -0.23691E-05   -0.23617E-05  1200   0.164E-05 0.179E-06
  43 F= -.59211522E+03 E0= -.59211522E+03  d E =-.933770E-01
       N       E                     dE             d eps       ncg     rms          ort
SDA:   1    -0.592074440251E+03    0.40778E-01    0.00000E+00  1200   0.118E+00 0.000E+00
CGA:   2    -0.592114041256E+03   -0.39601E-01   -0.39601E-01  1200   0.366E-01 0.260E-05
CGA:   3    -0.592123660455E+03   -0.96192E-02   -0.96187E-02  1200   0.491E-02-0.807E-05
CGA:   4    -0.592125012440E+03   -0.13520E-02   -0.13518E-02  1200   0.108E-02-0.187E-05
CGA:   5    -0.592125313302E+03   -0.30086E-03   -0.30096E-03  1200   0.261E-03 0.155E-05
CGA:   6    -0.592125404722E+03   -0.91420E-04   -0.91409E-04  1200   0.793E-04 0.115E-05
CGA:   7    -0.592125434102E+03   -0.29380E-04   -0.29386E-04  1200   0.250E-04-0.192E-06
CGA:   8    -0.592125442822E+03   -0.87203E-05   -0.87210E-05  1200   0.609E-05-0.126E-06
CGA:   9    -0.592125444896E+03   -0.20731E-05   -0.20731E-05  1200   0.127E-05 0.121E-06
  44 F= -.59212544E+03 E0= -.59212544E+03  d E =-.102239E-01
       N       E                     dE             d eps       ncg     rms          ort
SDA:   1    -0.591694578419E+03    0.43086E+00    0.00000E+00  1200   0.106E+01 0.000E+00
CGA:   2    -0.592050863071E+03   -0.35628E+00   -0.35628E+00  1200   0.330E+00-0.941E-04
CGA:   3    -0.592137392711E+03   -0.86530E-01   -0.86537E-01  1200   0.442E-01 0.729E-05
CGA:   4    -0.592149561401E+03   -0.12169E-01   -0.12168E-01  1200   0.970E-02-0.634E-05
CGA:   5    -0.592152274092E+03   -0.27127E-02   -0.27129E-02  1200   0.236E-02 0.424E-05
CGA:   6    -0.592153100698E+03   -0.82661E-03   -0.82654E-03  1200   0.720E-03 0.413E-05
CGA:   7    -0.592153365639E+03   -0.26494E-03   -0.26495E-03  1200   0.226E-03-0.246E-06
CGA:   8    -0.592153444643E+03   -0.79004E-04   -0.79008E-04  1200   0.551E-04-0.347E-06
CGA:   9    -0.592153463798E+03   -0.19155E-04   -0.19151E-04  1200   0.118E-04 0.375E-06
CGA:  10    -0.592153468178E+03   -0.43803E-05   -0.43781E-05  1200   0.295E-05 0.783E-07
  45 F= -.59215347E+03 E0= -.59215347E+03  d E =-.382472E-01
       N       E                     dE             d eps       ncg     rms          ort
SDA:   1    -0.590362377779E+03    0.17911E+01    0.00000E+00  1200   0.424E+01 0.000E+00
CGA:   2    -0.591786344537E+03   -0.14240E+01   -0.14239E+01  1200   0.132E+01-0.109E-02
CGA:   3    -0.592132902571E+03   -0.34656E+00   -0.34667E+00  1200   0.177E+00 0.382E-03
CGA:   4    -0.592181770185E+03   -0.48868E-01   -0.48865E-01  1200   0.389E-01-0.133E-04
CGA:   5    -0.592192666139E+03   -0.10896E-01   -0.10896E-01  1200   0.946E-02 0.823E-05
CGA:   6    -0.592195978178E+03   -0.33120E-02   -0.33119E-02  1200   0.288E-02 0.104E-04
CGA:   7    -0.592197038429E+03   -0.10603E-02   -0.10602E-02  1200   0.906E-03 0.425E-06
CGA:   8    -0.592197355023E+03   -0.31659E-03   -0.31660E-03  1200   0.220E-03-0.619E-06
CGA:   9    -0.592197432270E+03   -0.77247E-04   -0.77236E-04  1200   0.476E-04 0.747E-06
CGA:  10    -0.592197449848E+03   -0.17578E-04   -0.17572E-04  1200   0.118E-04 0.195E-06
CGA:  11    -0.592197454620E+03   -0.47715E-05   -0.47883E-05  1200   0.334E-05-0.257E-06
  46 F= -.59219745E+03 E0= -.59219745E+03  d E =-.822336E-01
       N       E                     dE             d eps       ncg     rms          ort
SDA:   1    -0.584905825125E+03    0.72916E+01    0.00000E+00  1200   0.170E+02 0.000E+00
CGA:   2    -0.590582695480E+03   -0.56769E+01   -0.56766E+01  1200   0.532E+01-0.107E-01
CGA:   3    -0.591972903971E+03   -0.13902E+01   -0.13919E+01  1200   0.719E+00 0.585E-02
CGA:   4    -0.592171504774E+03   -0.19860E+00   -0.19858E+00  1200   0.158E+00 0.423E-05
CGA:   5    -0.592216039595E+03   -0.44535E-01   -0.44539E-01  1200   0.387E-01 0.418E-04
CGA:   6    -0.592229632189E+03   -0.13593E-01   -0.13592E-01  1200   0.119E-01 0.325E-04
CGA:   7    -0.592234002496E+03   -0.43703E-02   -0.43702E-02  1200   0.376E-02 0.333E-05
CGA:   8    -0.592235316997E+03   -0.13145E-02   -0.13145E-02  1200   0.913E-03-0.125E-05
CGA:   9    -0.592235639019E+03   -0.32202E-03   -0.32200E-03  1200   0.197E-03 0.145E-05
CGA:  10    -0.592235711503E+03   -0.72484E-04   -0.72470E-04  1200   0.485E-04 0.498E-06
CGA:  11    -0.592235730778E+03   -0.19275E-04   -0.19296E-04  1200   0.133E-04-0.366E-06
CGA:  12    -0.592235736026E+03   -0.52478E-05   -0.52579E-05  1200   0.366E-05-0.184E-06
CGA:  13    -0.592235737440E+03   -0.14142E-05   -0.14120E-05  1200   0.985E-06 0.467E-07
  47 F= -.59223574E+03 E0= -.59223574E+03  d E =-.120516E+00
       N       E                     dE             d eps       ncg     rms          ort
SDA:   1    -0.592174992342E+03    0.60744E-01    0.00000E+00  1200   0.177E+00 0.000E+00
CGA:   2    -0.592232708504E+03   -0.57716E-01   -0.57716E-01  1200   0.586E-01 0.525E-05
CGA:   3    -0.592248010787E+03   -0.15302E-01   -0.15302E-01  1200   0.819E-02-0.405E-05
CGA:   4    -0.592250239516E+03   -0.22287E-02   -0.22285E-02  1200   0.170E-02-0.321E-05
CGA:   5    -0.592250730813E+03   -0.49130E-03   -0.49135E-03  1200   0.399E-03 0.953E-06
CGA:   6    -0.592250872794E+03   -0.14198E-03   -0.14197E-03  1200   0.121E-03 0.101E-05
CGA:   7    -0.592250917424E+03   -0.44631E-04   -0.44636E-04  1200   0.385E-04-0.221E-06
CGA:   8    -0.592250930873E+03   -0.13449E-04   -0.13450E-04  1200   0.958E-05-0.182E-06
CGA:   9    -0.592250934242E+03   -0.33692E-05   -0.33683E-05  1200   0.206E-05 0.104E-06
  48 F= -.59225093E+03 E0= -.59225093E+03  d E =-.151968E-01
       N       E                     dE             d eps       ncg     rms          ort
SDA:   1    -0.591586714144E+03    0.66422E+00    0.00000E+00  1200   0.160E+01 0.000E+00
CGA:   2    -0.592106685018E+03   -0.51997E+00   -0.51997E+00  1200   0.527E+00 0.122E-03
CGA:   3    -0.592244574203E+03   -0.13789E+00   -0.13790E+00  1200   0.738E-01 0.376E-04
CGA:   4    -0.592264649413E+03   -0.20075E-01   -0.20075E-01  1200   0.154E-01-0.775E-05
CGA:   5    -0.592269084307E+03   -0.44349E-02   -0.44350E-02  1200   0.362E-02 0.211E-05
CGA:   6    -0.592270370180E+03   -0.12859E-02   -0.12858E-02  1200   0.110E-02 0.395E-05
CGA:   7    -0.592270774396E+03   -0.40422E-03   -0.40422E-03  1200   0.350E-03-0.176E-06
CGA:   8    -0.592270896293E+03   -0.12190E-03   -0.12190E-03  1200   0.864E-04-0.496E-06
CGA:   9    -0.592270927108E+03   -0.30815E-04   -0.30809E-04  1200   0.189E-04 0.318E-06
CGA:  10    -0.592270934249E+03   -0.71407E-05   -0.71313E-05  1200   0.466E-05 0.239E-06
CGA:  11    -0.592270936181E+03   -0.19321E-05   -0.19362E-05  1200   0.136E-05-0.592E-07
  49 F= -.59227094E+03 E0= -.59227094E+03  d E =-.351987E-01
       N       E                     dE             d eps       ncg     rms          ort
SDA:   1    -0.592143518595E+03    0.12742E+00    0.00000E+00  1200   0.328E+00 0.000E+00
CGA:   2    -0.592256555682E+03   -0.11304E+00   -0.11304E+00  1200   0.104E+00 0.522E-04
CGA:   3    -0.592282877220E+03   -0.26322E-01   -0.26320E-01  1200   0.144E-01-0.549E-05
CGA:   4    -0.592286792853E+03   -0.39156E-02   -0.39155E-02  1200   0.302E-02-0.195E-05
CGA:   5    -0.592287661160E+03   -0.86831E-03   -0.86840E-03  1200   0.729E-03 0.185E-05
CGA:   6    -0.592287916294E+03   -0.25513E-03   -0.25512E-03  1200   0.219E-03 0.712E-06
CGA:   7    -0.592287997548E+03   -0.81255E-04   -0.81265E-04  1200   0.682E-04-0.302E-06
CGA:   8    -0.592288021340E+03   -0.23792E-04   -0.23793E-04  1200   0.168E-04-0.872E-07
CGA:   9    -0.592288027156E+03   -0.58152E-05   -0.58139E-05  1200   0.364E-05 0.181E-06
CGA:  10    -0.592288028502E+03   -0.13459E-05   -0.13439E-05  1200   0.905E-06 0.805E-07
  50 F= -.59228803E+03 E0= -.59228803E+03  d E =-.170923E-01
       N       E                     dE             d eps       ncg     rms          ort
SDA:   1    -0.591368699333E+03    0.91933E+00    0.00000E+00  1200   0.212E+01 0.000E+00
CGA:   2    -0.592102280667E+03   -0.73358E+00   -0.73358E+00  1200   0.676E+00 0.876E-03
CGA:   3    -0.592272546999E+03   -0.17027E+00   -0.17027E+00  1200   0.940E-01 0.542E-05
CGA:   4    -0.592298078139E+03   -0.25531E-01   -0.25531E-01  1200   0.197E-01-0.617E-05
CGA:   5    -0.592303776039E+03   -0.56979E-02   -0.56981E-02  1200   0.482E-02 0.385E-05
CGA:   6    -0.592305465407E+03   -0.16894E-02   -0.16893E-02  1200   0.145E-02 0.314E-05
CGA:   7    -0.592306001874E+03   -0.53647E-03   -0.53647E-03  1200   0.449E-03 0.130E-07
CGA:   8    -0.592306158016E+03   -0.15614E-03   -0.15614E-03  1200   0.110E-03-0.137E-06
CGA:   9    -0.592306196418E+03   -0.38401E-04   -0.38396E-04  1200   0.241E-04 0.451E-06
CGA:  10    -0.592306205339E+03   -0.89213E-05   -0.89147E-05  1200   0.603E-05 0.218E-06
CGA:  11    -0.592306207764E+03   -0.24250E-05   -0.24310E-05  1200   0.170E-05-0.980E-07
  51 F= -.59230621E+03 E0= -.59230621E+03  d E =-.352716E-01
       N       E                     dE             d eps       ncg     rms          ort
SDA:   1    -0.592029218739E+03    0.27699E+00    0.00000E+00  1200   0.677E+00 0.000E+00
CGA:   2    -0.592263596386E+03   -0.23438E+00   -0.23438E+00  1200   0.203E+00 0.201E-03
CGA:   3    -0.592315277545E+03   -0.51681E-01   -0.51674E-01  1200   0.284E-01-0.108E-04
CGA:   4    -0.592322915345E+03   -0.76378E-02   -0.76378E-02  1200   0.580E-02-0.224E-05
CGA:   5    -0.592324546961E+03   -0.16316E-02   -0.16319E-02  1200   0.135E-02 0.575E-05
CGA:   6    -0.592325013209E+03   -0.46625E-03   -0.46623E-03  1200   0.398E-03 0.183E-05
CGA:   7    -0.592325162987E+03   -0.14978E-03   -0.14981E-03  1200   0.125E-03-0.766E-06
CGA:   8    -0.592325206973E+03   -0.43986E-04   -0.43988E-04  1200   0.308E-04-0.134E-06
CGA:   9    -0.592325217619E+03   -0.10646E-04   -0.10644E-04  1200   0.661E-05 0.352E-06
CGA:  10    -0.592325220091E+03   -0.24716E-05   -0.24688E-05  1200   0.160E-05 0.887E-07
  52 F= -.59232522E+03 E0= -.59232522E+03  d E =-.190123E-01
       N       E                     dE             d eps       ncg     rms          ort
SDA:   1    -0.591911593293E+03    0.41362E+00    0.00000E+00  1200   0.964E+00 0.000E+00
CGA:   2    -0.592245538424E+03   -0.33395E+00   -0.33394E+00  1200   0.289E+00 0.322E-03
CGA:   3    -0.592319096895E+03   -0.73558E-01   -0.73548E-01  1200   0.405E-01-0.148E-04
CGA:   4    -0.592329978069E+03   -0.10881E-01   -0.10881E-01  1200   0.827E-02-0.214E-05
CGA:   5    -0.592332307140E+03   -0.23291E-02   -0.23294E-02  1200   0.193E-02 0.676E-05
CGA:   6    -0.592332973335E+03   -0.66619E-03   -0.66616E-03  1200   0.568E-03 0.255E-05
CGA:   7    -0.592333187054E+03   -0.21372E-03   -0.21375E-03  1200   0.178E-03-0.693E-06
CGA:   8    -0.592333249698E+03   -0.62644E-04   -0.62648E-04  1200   0.438E-04-0.158E-06
CGA:   9    -0.592333264868E+03   -0.15170E-04   -0.15166E-04  1200   0.940E-05 0.424E-06
CGA:  10    -0.592333268390E+03   -0.35216E-05   -0.35182E-05  1200   0.227E-05 0.962E-07
  53 F= -.59233327E+03 E0= -.59233327E+03  d E =-.270606E-01
       N       E                     dE             d eps       ncg     rms          ort
SDA:   1    -0.591937383576E+03    0.39588E+00    0.00000E+00  1200   0.967E+00 0.000E+00
CGA:   2    -0.592263372602E+03   -0.32599E+00   -0.32599E+00  1200   0.292E+00-0.137E-03
CGA:   3    -0.592337781008E+03   -0.74408E-01   -0.74417E-01  1200   0.407E-01 0.610E-05
CGA:   4    -0.592348636046E+03   -0.10855E-01   -0.10854E-01  1200   0.818E-02-0.774E-05
CGA:   5    -0.592350921813E+03   -0.22858E-02   -0.22859E-02  1200   0.187E-02 0.240E-05
CGA:   6    -0.592351557954E+03   -0.63614E-03   -0.63610E-03  1200   0.548E-03 0.448E-05
CGA:   7    -0.592351763861E+03   -0.20591E-03   -0.20593E-03  1200   0.173E-03-0.462E-06
CGA:   8    -0.592351825513E+03   -0.61652E-04   -0.61670E-04  1200   0.432E-04-0.776E-06
CGA:   9    -0.592351840595E+03   -0.15082E-04   -0.15075E-04  1200   0.929E-05 0.449E-06
CGA:  10    -0.592351844111E+03   -0.35161E-05   -0.35102E-05  1200   0.225E-05 0.149E-06
  54 F= -.59235184E+03 E0= -.59235184E+03  d E =-.185757E-01
       N       E                     dE             d eps       ncg     rms          ort
SDA:   1    -0.592232637375E+03    0.11920E+00    0.00000E+00  1200   0.284E+00 0.000E+00
CGA:   2    -0.592328423504E+03   -0.95786E-01   -0.95786E-01  1200   0.857E-01-0.441E-05
CGA:   3    -0.592350290257E+03   -0.21867E-01   -0.21867E-01  1200   0.119E-01-0.694E-05
CGA:   4    -0.592353469561E+03   -0.31793E-02   -0.31790E-02  1200   0.239E-02-0.354E-05
CGA:   5    -0.592354136160E+03   -0.66660E-03   -0.66667E-03  1200   0.541E-03 0.123E-05
CGA:   6    -0.592354320464E+03   -0.18430E-03   -0.18428E-03  1200   0.158E-03 0.210E-05
CGA:   7    -0.592354380290E+03   -0.59827E-04   -0.59845E-04  1200   0.504E-04-0.410E-06
CGA:   8    -0.592354398264E+03   -0.17974E-04   -0.17985E-04  1200   0.127E-04-0.463E-06
CGA:   9    -0.592354402612E+03   -0.43479E-05   -0.43452E-05  1200   0.267E-05 0.237E-06
  55 F= -.59235440E+03 E0= -.59235440E+03  d E =-.211342E-01
       N       E                     dE             d eps       ncg     rms          ort
SDA:   1    -0.592056953701E+03    0.29744E+00    0.00000E+00  1200   0.726E+00 0.000E+00
CGA:   2    -0.592305875696E+03   -0.24892E+00   -0.24892E+00  1200   0.220E+00-0.196E-03
CGA:   3    -0.592360569808E+03   -0.54694E-01   -0.54705E-01  1200   0.306E-01-0.112E-04
CGA:   4    -0.592368786165E+03   -0.82164E-02   -0.82154E-02  1200   0.610E-02-0.927E-05
CGA:   5    -0.592370516817E+03   -0.17307E-02   -0.17306E-02  1200   0.143E-02-0.360E-06
CGA:   6    -0.592371009206E+03   -0.49239E-03   -0.49234E-03  1200   0.426E-03 0.286E-05
CGA:   7    -0.592371171055E+03   -0.16185E-03   -0.16188E-03  1200   0.132E-03-0.633E-06
CGA:   8    -0.592371218141E+03   -0.47086E-04   -0.47105E-04  1200   0.325E-04-0.687E-06
CGA:   9    -0.592371229384E+03   -0.11243E-04   -0.11238E-04  1200   0.708E-05 0.367E-06
CGA:  10    -0.592371232047E+03   -0.26628E-05   -0.26585E-05  1200   0.175E-05 0.113E-06
  56 F= -.59237123E+03 E0= -.59237123E+03  d E =-.168294E-01
       N       E                     dE             d eps       ncg     rms          ort
SDA:   1    -0.591400764633E+03    0.97046E+00    0.00000E+00  1200   0.227E+01 0.000E+00
CGA:   2    -0.592177806408E+03   -0.77704E+00   -0.77705E+00  1200   0.690E+00-0.141E-02
CGA:   3    -0.592349041600E+03   -0.17124E+00   -0.17132E+00  1200   0.962E-01 0.541E-04
CGA:   4    -0.592374931362E+03   -0.25890E-01   -0.25885E-01  1200   0.192E-01-0.317E-04
CGA:   5    -0.592380408421E+03   -0.54771E-02   -0.54770E-02  1200   0.455E-02-0.185E-05
CGA:   6    -0.592381978000E+03   -0.15696E-02   -0.15695E-02  1200   0.137E-02 0.583E-05
CGA:   7    -0.592382496377E+03   -0.51838E-03   -0.51841E-03  1200   0.420E-03-0.711E-06
CGA:   8    -0.592382646316E+03   -0.14994E-03   -0.14997E-03  1200   0.103E-03-0.111E-05
CGA:   9    -0.592382682317E+03   -0.36001E-04   -0.35991E-04  1200   0.227E-04 0.631E-06
CGA:  10    -0.592382690834E+03   -0.85167E-05   -0.85084E-05  1200   0.560E-05 0.210E-06
CGA:  11    -0.592382693121E+03   -0.22875E-05   -0.22959E-05  1200   0.157E-05-0.125E-06
  57 F= -.59238269E+03 E0= -.59238269E+03  d E =-.282905E-01
       N       E                     dE             d eps       ncg     rms          ort
SDA:   1    -0.592218402590E+03    0.16429E+00    0.00000E+00  1200   0.407E+00 0.000E+00
CGA:   2    -0.592357575402E+03   -0.13917E+00   -0.13917E+00  1200   0.124E+00-0.558E-07
CGA:   3    -0.592388614369E+03   -0.31039E-01   -0.31040E-01  1200   0.176E-01-0.898E-05
CGA:   4    -0.592393353205E+03   -0.47388E-02   -0.47383E-02  1200   0.343E-02-0.594E-05
CGA:   5    -0.592394343164E+03   -0.98996E-03   -0.99003E-03  1200   0.815E-03 0.151E-05
CGA:   6    -0.592394624058E+03   -0.28089E-03   -0.28088E-03  1200   0.246E-03 0.141E-05
CGA:   7    -0.592394716542E+03   -0.92484E-04   -0.92511E-04  1200   0.768E-04-0.609E-06
CGA:   8    -0.592394743646E+03   -0.27103E-04   -0.27108E-04  1200   0.191E-04-0.248E-06
CGA:   9    -0.592394750252E+03   -0.66068E-05   -0.66037E-05  1200   0.410E-05 0.237E-06
CGA:  10    -0.592394751820E+03   -0.15679E-05   -0.15647E-05  1200   0.997E-06 0.812E-07
  58 F= -.59239475E+03 E0= -.59239475E+03  d E =-.120587E-01
       N       E                     dE             d eps       ncg     rms          ort
SDA:   1    -0.591429772355E+03    0.96498E+00    0.00000E+00  1200   0.225E+01 0.000E+00
CGA:   2    -0.592199645611E+03   -0.76987E+00   -0.76987E+00  1200   0.688E+00-0.414E-03
CGA:   3    -0.592372030212E+03   -0.17238E+00   -0.17243E+00  1200   0.981E-01 0.356E-04
CGA:   4    -0.592398548676E+03   -0.26518E-01   -0.26515E-01  1200   0.193E-01-0.262E-04
CGA:   5    -0.592404132620E+03   -0.55839E-02   -0.55841E-02  1200   0.462E-02 0.209E-05
CGA:   6    -0.592405734990E+03   -0.16024E-02   -0.16023E-02  1200   0.140E-02 0.500E-05
CGA:   7    -0.592406263488E+03   -0.52850E-03   -0.52852E-03  1200   0.435E-03-0.473E-06
CGA:   8    -0.592406417245E+03   -0.15376E-03   -0.15376E-03  1200   0.108E-03-0.379E-06
CGA:   9    -0.592406454883E+03   -0.37638E-04   -0.37630E-04  1200   0.233E-04 0.566E-06
CGA:  10    -0.592406463804E+03   -0.89211E-05   -0.89140E-05  1200   0.568E-05 0.165E-06
CGA:  11    -0.592406466139E+03   -0.23348E-05   -0.23412E-05  1200   0.158E-05-0.901E-07
  59 F= -.59240647E+03 E0= -.59240647E+03  d E =-.237730E-01
       N       E                     dE             d eps       ncg     rms          ort
SDA:   1    -0.592290072401E+03    0.11639E+00    0.00000E+00  1200   0.291E+00 0.000E+00
CGA:   2    -0.592388992238E+03   -0.98920E-01   -0.98920E-01  1200   0.919E-01 0.219E-04
CGA:   3    -0.592412277512E+03   -0.23285E-01   -0.23284E-01  1200   0.130E-01-0.798E-05
CGA:   4    -0.592415790177E+03   -0.35127E-02   -0.35124E-02  1200   0.261E-02-0.364E-05
CGA:   5    -0.592416548328E+03   -0.75815E-03   -0.75827E-03  1200   0.620E-03 0.253E-05
CGA:   6    -0.592416766199E+03   -0.21787E-03   -0.21784E-03  1200   0.189E-03 0.204E-05
CGA:   7    -0.592416837033E+03   -0.70834E-04   -0.70857E-04  1200   0.592E-04-0.592E-06
CGA:   8    -0.592416857683E+03   -0.20650E-04   -0.20654E-04  1200   0.147E-04-0.283E-06
CGA:   9    -0.592416862749E+03   -0.50656E-05   -0.50636E-05  1200   0.315E-05 0.262E-06
CGA:  10    -0.592416863972E+03   -0.12227E-05   -0.12200E-05  1200   0.793E-06 0.700E-07
  60 F= -.59241686E+03 E0= -.59241686E+03  d E =-.103978E-01
       N       E                     dE             d eps       ncg     rms          ort
SDA:   1    -0.591802121157E+03    0.61474E+00    0.00000E+00  1200   0.143E+01 0.000E+00
CGA:   2    -0.592288817125E+03   -0.48670E+00   -0.48670E+00  1200   0.453E+00 0.412E-04
CGA:   3    -0.592403554010E+03   -0.11474E+00   -0.11474E+00  1200   0.641E-01-0.758E-05
CGA:   4    -0.592420890207E+03   -0.17336E-01   -0.17335E-01  1200   0.129E-01-0.868E-05
CGA:   5    -0.592424648453E+03   -0.37582E-02   -0.37585E-02  1200   0.309E-02 0.486E-05
CGA:   6    -0.592425735335E+03   -0.10869E-02   -0.10868E-02  1200   0.946E-03 0.510E-05
CGA:   7    -0.592426088340E+03   -0.35300E-03   -0.35304E-03  1200   0.294E-03-0.897E-06
CGA:   8    -0.592426191091E+03   -0.10275E-03   -0.10276E-03  1200   0.730E-04-0.615E-06
CGA:   9    -0.592426216546E+03   -0.25455E-04   -0.25449E-04  1200   0.159E-04 0.581E-06
CGA:  10    -0.592426222678E+03   -0.61321E-05   -0.61252E-05  1200   0.399E-05 0.157E-06
CGA:  11    -0.592426224369E+03   -0.16909E-05   -0.17025E-05  1200   0.120E-05-0.146E-06
  61 F= -.59242622E+03 E0= -.59242622E+03  d E =-.197582E-01
       N       E                     dE             d eps       ncg     rms          ort
SDA:   1    -0.592279526677E+03    0.14670E+00    0.00000E+00  1200   0.354E+00 0.000E+00
CGA:   2    -0.592403215181E+03   -0.12369E+00   -0.12369E+00  1200   0.107E+00 0.611E-04
CGA:   3    -0.592430542195E+03   -0.27327E-01   -0.27324E-01  1200   0.153E-01-0.680E-05
CGA:   4    -0.592434683977E+03   -0.41418E-02   -0.41417E-02  1200   0.324E-02-0.221E-05
CGA:   5    -0.592435604778E+03   -0.92080E-03   -0.92102E-03  1200   0.816E-03 0.404E-05
CGA:   6    -0.592435889808E+03   -0.28503E-03   -0.28501E-03  1200   0.250E-03 0.159E-05
CGA:   7    -0.592435983808E+03   -0.94000E-04   -0.94036E-04  1200   0.763E-04-0.958E-06
CGA:   8    -0.592436010411E+03   -0.26603E-04   -0.26606E-04  1200   0.183E-04-0.245E-06
CGA:   9    -0.592436016617E+03   -0.62051E-05   -0.62050E-05  1200   0.390E-05 0.332E-06
CGA:  10    -0.592436018082E+03   -0.14654E-05   -0.14635E-05  1200   0.975E-06 0.735E-07
  62 F= -.59243602E+03 E0= -.59243602E+03  d E =-.979371E-02
       N       E                     dE             d eps       ncg     rms          ort
SDA:   1    -0.592345286873E+03    0.90730E-01    0.00000E+00  1200   0.211E+00 0.000E+00
CGA:   2    -0.592418812115E+03   -0.73525E-01   -0.73525E-01  1200   0.636E-01 0.289E-04
CGA:   3    -0.592435058763E+03   -0.16247E-01   -0.16245E-01  1200   0.910E-02-0.328E-05
CGA:   4    -0.592437520394E+03   -0.24616E-02   -0.24615E-02  1200   0.192E-02-0.170E-05
CGA:   5    -0.592438067109E+03   -0.54671E-03   -0.54688E-03  1200   0.482E-03 0.311E-05
CGA:   6    -0.592438235838E+03   -0.16873E-03   -0.16871E-03  1200   0.148E-03 0.117E-05
CGA:   7    -0.592438291528E+03   -0.55690E-04   -0.55723E-04  1200   0.451E-04-0.774E-06
CGA:   8    -0.592438307260E+03   -0.15732E-04   -0.15735E-04  1200   0.108E-04-0.199E-06
CGA:   9    -0.592438310904E+03   -0.36438E-05   -0.36437E-05  1200   0.228E-05 0.254E-06
  63 F= -.59243831E+03 E0= -.59243831E+03  d E =-.120865E-01
       N       E                     dE             d eps       ncg     rms          ort
SDA:   1    -0.592297124347E+03    0.14118E+00    0.00000E+00  1200   0.348E+00 0.000E+00
CGA:   2    -0.592414740224E+03   -0.11762E+00   -0.11762E+00  1200   0.109E+00 0.859E-04
CGA:   3    -0.592442935138E+03   -0.28195E-01   -0.28193E-01  1200   0.161E-01 0.144E-05
CGA:   4    -0.592447224390E+03   -0.42893E-02   -0.42893E-02  1200   0.337E-02 0.502E-06
CGA:   5    -0.592448191489E+03   -0.96710E-03   -0.96732E-03  1200   0.834E-03 0.480E-05
CGA:   6    -0.592448484084E+03   -0.29260E-03   -0.29259E-03  1200   0.263E-03 0.467E-06
CGA:   7    -0.592448581913E+03   -0.97829E-04   -0.97854E-04  1200   0.810E-04-0.602E-06
CGA:   8    -0.592448610388E+03   -0.28474E-04   -0.28472E-04  1200   0.199E-04 0.115E-06
CGA:   9    -0.592448617365E+03   -0.69778E-05   -0.69740E-05  1200   0.437E-05 0.263E-06
CGA:  10    -0.592448619032E+03   -0.16663E-05   -0.16636E-05  1200   0.111E-05 0.655E-07
  64 F= -.59244862E+03 E0= -.59244862E+03  d E =-.103081E-01
       N       E                     dE             d eps       ncg     rms          ort
SDA:   1    -0.592288239997E+03    0.16038E+00    0.00000E+00  1200   0.377E+00 0.000E+00
CGA:   2    -0.592415548988E+03   -0.12731E+00   -0.12731E+00  1200   0.118E+00 0.973E-04
CGA:   3    -0.592446085592E+03   -0.30537E-01   -0.30534E-01  1200   0.175E-01 0.142E-05
CGA:   4    -0.592450731128E+03   -0.46455E-02   -0.46456E-02  1200   0.365E-02 0.583E-06
CGA:   5    -0.592451779100E+03   -0.10480E-02   -0.10482E-02  1200   0.901E-03 0.498E-05
CGA:   6    -0.592452095250E+03   -0.31615E-03   -0.31614E-03  1200   0.283E-03 0.561E-06
CGA:   7    -0.592452200851E+03   -0.10560E-03   -0.10562E-03  1200   0.873E-04-0.545E-06
CGA:   8    -0.592452231549E+03   -0.30698E-04   -0.30695E-04  1200   0.215E-04 0.119E-06
CGA:   9    -0.592452239072E+03   -0.75232E-05   -0.75192E-05  1200   0.471E-05 0.263E-06
CGA:  10    -0.592452240867E+03   -0.17945E-05   -0.17919E-05  1200   0.120E-05 0.659E-07
  65 F= -.59245224E+03 E0= -.59245224E+03  d E =-.139300E-01
       N       E                     dE             d eps       ncg     rms          ort
SDA:   1    -0.592308167355E+03    0.14407E+00    0.00000E+00  1200   0.339E+00 0.000E+00
CGA:   2    -0.592427168931E+03   -0.11900E+00   -0.11900E+00  1200   0.103E+00 0.226E-04
CGA:   3    -0.592453639312E+03   -0.26470E-01   -0.26471E-01  1200   0.151E-01-0.193E-05
CGA:   4    -0.592457627216E+03   -0.39879E-02   -0.39878E-02  1200   0.300E-02-0.128E-05
CGA:   5    -0.592458475123E+03   -0.84791E-03   -0.84802E-03  1200   0.712E-03 0.215E-05
CGA:   6    -0.592458719745E+03   -0.24462E-03   -0.24460E-03  1200   0.211E-03 0.169E-05
CGA:   7    -0.592458799811E+03   -0.80066E-04   -0.80071E-04  1200   0.673E-04-0.995E-07
CGA:   8    -0.592458823717E+03   -0.23906E-04   -0.23910E-04  1200   0.175E-04-0.201E-06
CGA:   9    -0.592458829714E+03   -0.59976E-05   -0.59955E-05  1200   0.372E-05 0.206E-06
CGA:  10    -0.592458831114E+03   -0.13994E-05   -0.13985E-05  1200   0.920E-06 0.186E-07
  66 F= -.59245883E+03 E0= -.59245883E+03  d E =-.659025E-02
       N       E                     dE             d eps       ncg     rms          ort
SDA:   1    -0.592451670383E+03    0.71593E-02    0.00000E+00  1200   0.166E-01 0.000E+00
CGA:   2    -0.592457501776E+03   -0.58314E-02   -0.58314E-02  1200   0.507E-02 0.362E-05
CGA:   3    -0.592458799902E+03   -0.12981E-02   -0.12981E-02  1200   0.738E-03-0.317E-06
CGA:   4    -0.592458995088E+03   -0.19519E-03   -0.19518E-03  1200   0.146E-03-0.124E-06
CGA:   5    -0.592459036298E+03   -0.41210E-04   -0.41236E-04  1200   0.341E-04 0.491E-06
CGA:   6    -0.592459048020E+03   -0.11722E-04   -0.11718E-04  1200   0.100E-04 0.315E-06
CGA:   7    -0.592459051902E+03   -0.38822E-05   -0.38847E-05  1200   0.326E-05-0.509E-07
CGA:   8    -0.592459053069E+03   -0.11668E-05   -0.11686E-05  1200   0.864E-06-0.530E-07
  67 F= -.59245905E+03 E0= -.59245905E+03  d E =-.681220E-02
       N       E                     dE             d eps       ncg     rms          ort
SDA:   1    -0.592379549197E+03    0.79503E-01    0.00000E+00  1200   0.199E+00 0.000E+00
CGA:   2    -0.592448970372E+03   -0.69421E-01   -0.69421E-01  1200   0.601E-01 0.128E-04
CGA:   3    -0.592464326700E+03   -0.15356E-01   -0.15356E-01  1200   0.872E-02-0.608E-05
CGA:   4    -0.592466680049E+03   -0.23533E-02   -0.23531E-02  1200   0.182E-02-0.321E-05
CGA:   5    -0.592467196790E+03   -0.51674E-03   -0.51680E-03  1200   0.457E-03 0.140E-05
CGA:   6    -0.592467356199E+03   -0.15941E-03   -0.15937E-03  1200   0.141E-03 0.178E-05
CGA:   7    -0.592467408783E+03   -0.52583E-04   -0.52597E-04  1200   0.444E-04-0.293E-06
CGA:   8    -0.592467424319E+03   -0.15536E-04   -0.15544E-04  1200   0.110E-04-0.368E-06
CGA:   9    -0.592467428114E+03   -0.37949E-05   -0.37926E-05  1200   0.228E-05 0.133E-06
  68 F= -.59246743E+03 E0= -.59246743E+03  d E =-.837504E-02
       N       E                     dE             d eps       ncg     rms          ort
SDA:   1    -0.591692830398E+03    0.77459E+00    0.00000E+00  1200   0.179E+01 0.000E+00
CGA:   2    -0.592316553461E+03   -0.62372E+00   -0.62372E+00  1200   0.541E+00-0.151E-03
CGA:   3    -0.592454737243E+03   -0.13818E+00   -0.13820E+00  1200   0.790E-01-0.244E-05
CGA:   4    -0.592476056695E+03   -0.21319E-01   -0.21317E-01  1200   0.166E-01-0.210E-04
CGA:   5    -0.592480778211E+03   -0.47215E-02   -0.47217E-02  1200   0.421E-02 0.263E-05
CGA:   6    -0.592482250193E+03   -0.14720E-02   -0.14718E-02  1200   0.131E-02 0.620E-05
CGA:   7    -0.592482735979E+03   -0.48579E-03   -0.48580E-03  1200   0.408E-03-0.349E-06
CGA:   8    -0.592482878581E+03   -0.14260E-03   -0.14262E-03  1200   0.100E-03-0.108E-05
CGA:   9    -0.592482913748E+03   -0.35167E-04   -0.35158E-04  1200   0.212E-04 0.401E-06
CGA:  10    -0.592482921739E+03   -0.79907E-05   -0.79812E-05  1200   0.518E-05 0.214E-06
CGA:  11    -0.592482923857E+03   -0.21183E-05   -0.21256E-05  1200   0.148E-05-0.103E-06
  69 F= -.59248292E+03 E0= -.59248292E+03  d E =-.238708E-01
       N       E                     dE             d eps       ncg     rms          ort
SDA:   1    -0.589315573408E+03    0.31673E+01    0.00000E+00  1200   0.716E+01 0.000E+00
CGA:   2    -0.591801420642E+03   -0.24858E+01   -0.24859E+01  1200   0.217E+01-0.267E-02
CGA:   3    -0.592355633710E+03   -0.55421E+00   -0.55450E+00  1200   0.321E+00 0.451E-03
CGA:   4    -0.592442319192E+03   -0.86685E-01   -0.86668E-01  1200   0.680E-01-0.117E-03
CGA:   5    -0.592461771213E+03   -0.19452E-01   -0.19453E-01  1200   0.175E-01-0.508E-06
CGA:   6    -0.592467933798E+03   -0.61626E-02   -0.61623E-02  1200   0.553E-02 0.143E-04
CGA:   7    -0.592469977355E+03   -0.20436E-02   -0.20435E-02  1200   0.171E-02 0.573E-06
CGA:   8    -0.592470574319E+03   -0.59696E-03   -0.59700E-03  1200   0.416E-03-0.221E-05
CGA:   9    -0.592470720968E+03   -0.14665E-03   -0.14663E-03  1200   0.877E-04 0.745E-06
CGA:  10    -0.592470753991E+03   -0.33022E-04   -0.33005E-04  1200   0.215E-04 0.436E-06
CGA:  11    -0.592470762591E+03   -0.86005E-05   -0.86113E-05  1200   0.597E-05-0.171E-06
CGA:  12    -0.592470764897E+03   -0.23063E-05   -0.23095E-05  1200   0.159E-05-0.576E-07
  70 F= -.59247076E+03 E0= -.59247076E+03  d E =-.117118E-01
       N       E                     dE             d eps       ncg     rms          ort
SDA:   1    -0.590879653877E+03    0.15911E+01    0.00000E+00  1200   0.366E+01 0.000E+00
CGA:   2    -0.592147660698E+03   -0.12680E+01   -0.12680E+01  1200   0.110E+01 0.259E-03
CGA:   3    -0.592429088114E+03   -0.28143E+00   -0.28148E+00  1200   0.159E+00 0.323E-03
CGA:   4    -0.592471899063E+03   -0.42811E-01   -0.42815E-01  1200   0.330E-01 0.382E-04
CGA:   5    -0.592481210099E+03   -0.93110E-02   -0.93111E-02  1200   0.812E-02-0.215E-06
CGA:   6    -0.592484030274E+03   -0.28202E-02   -0.28202E-02  1200   0.247E-02-0.177E-05
CGA:   7    -0.592484948459E+03   -0.91818E-03   -0.91806E-03  1200   0.772E-03 0.346E-05
CGA:   8    -0.592485218959E+03   -0.27050E-03   -0.27047E-03  1200   0.191E-03 0.218E-05
CGA:   9    -0.592485287299E+03   -0.68340E-04   -0.68347E-04  1200   0.416E-04-0.411E-06
CGA:  10    -0.592485303097E+03   -0.15798E-04   -0.15813E-04  1200   0.102E-04-0.333E-06
CGA:  11    -0.592485307057E+03   -0.39594E-05   -0.39516E-05  1200   0.266E-05 0.158E-06
  71 F= -.59248531E+03 E0= -.59248531E+03  d E =-.262540E-01
       N       E                     dE             d eps       ncg     rms          ort
SDA:   1    -0.592453931805E+03    0.31371E-01    0.00000E+00  1200   0.845E-01 0.000E+00
CGA:   2    -0.592482728371E+03   -0.28797E-01   -0.28797E-01  1200   0.264E-01 0.312E-05
CGA:   3    -0.592489446539E+03   -0.67182E-02   -0.67180E-02  1200   0.384E-02-0.355E-05
CGA:   4    -0.592490466780E+03   -0.10202E-02   -0.10201E-02  1200   0.794E-03-0.150E-05
CGA:   5    -0.592490692717E+03   -0.22594E-03   -0.22596E-03  1200   0.187E-03 0.406E-06
CGA:   6    -0.592490758095E+03   -0.65378E-04   -0.65366E-04  1200   0.573E-04 0.696E-06
CGA:   7    -0.592490779365E+03   -0.21271E-04   -0.21273E-04  1200   0.181E-04-0.697E-07
CGA:   8    -0.592490785800E+03   -0.64344E-05   -0.64378E-05  1200   0.459E-05-0.175E-06
CGA:   9    -0.592490787384E+03   -0.15845E-05   -0.15832E-05  1200   0.954E-06 0.868E-07
  72 F= -.59249079E+03 E0= -.59249079E+03  d E =-.548033E-02
       N       E                     dE             d eps       ncg     rms          ort
SDA:   1    -0.592169527542E+03    0.32126E+00    0.00000E+00  1200   0.759E+00 0.000E+00
CGA:   2    -0.592428482007E+03   -0.25895E+00   -0.25895E+00  1200   0.237E+00-0.484E-04
CGA:   3    -0.592488748768E+03   -0.60267E-01   -0.60271E-01  1200   0.345E-01-0.695E-05
CGA:   4    -0.592497940296E+03   -0.91915E-02   -0.91908E-02  1200   0.716E-02-0.717E-05
CGA:   5    -0.592499981172E+03   -0.20409E-02   -0.20409E-02  1200   0.170E-02 0.792E-06
CGA:   6    -0.592500577766E+03   -0.59659E-03   -0.59654E-03  1200   0.529E-03 0.251E-05
CGA:   7    -0.592500773056E+03   -0.19529E-03   -0.19529E-03  1200   0.167E-03 0.334E-07
CGA:   8    -0.592500831989E+03   -0.58933E-04   -0.58944E-04  1200   0.418E-04-0.505E-06
[...]
CGA:   5    -0.593245772865E+03   -0.75971E-03   -0.75975E-03  1200   0.565E-03 0.102E-05
CGA:   6    -0.593245962654E+03   -0.18979E-03   -0.18978E-03  1200   0.153E-03 0.553E-06
CGA:   7    -0.593246020418E+03   -0.57764E-04   -0.57748E-04  1200   0.448E-04 0.311E-06
CGA:   8    -0.593246037254E+03   -0.16836E-04   -0.16829E-04  1200   0.111E-04 0.152E-06
CGA:   9    -0.593246041362E+03   -0.41084E-05   -0.41059E-05  1200   0.256E-05 0.587E-07
 409 F= -.59324604E+03 E0= -.59324604E+03  d E =-.410581E-03
       N       E                     dE             d eps       ncg     rms          ort
SDA:   1    -0.593234300845E+03    0.11736E-01    0.00000E+00  1200   0.279E-01 0.000E+00
CGA:   2    -0.593243961112E+03   -0.96603E-02   -0.96603E-02  1200   0.760E-02 0.165E-06
CGA:   3    -0.593245856069E+03   -0.18950E-02   -0.18948E-02  1200   0.116E-02-0.974E-06
CGA:   4    -0.593246157601E+03   -0.30153E-03   -0.30155E-03  1200   0.210E-03 0.194E-06
CGA:   5    -0.593246217036E+03   -0.59435E-04   -0.59461E-04  1200   0.441E-04 0.569E-06
CGA:   6    -0.593246231924E+03   -0.14888E-04   -0.14887E-04  1200   0.120E-04 0.760E-07
CGA:   7    -0.593246236454E+03   -0.45297E-05   -0.45269E-05  1200   0.351E-05 0.682E-07
CGA:   8    -0.593246237768E+03   -0.13146E-05   -0.13125E-05  1200   0.864E-06 0.574E-07
 410 F= -.59324624E+03 E0= -.59324624E+03  d E =-.196406E-03
       N       E                     dE             d eps       ncg     rms          ort
SDA:   1    -0.593201200799E+03    0.45036E-01    0.00000E+00  1200   0.106E+00 0.000E+00
CGA:   2    -0.593237764854E+03   -0.36564E-01   -0.36564E-01  1200   0.288E-01 0.401E-05
CGA:   3    -0.593244945177E+03   -0.71803E-02   -0.71800E-02  1200   0.438E-02-0.212E-05
CGA:   4    -0.593246089471E+03   -0.11443E-02   -0.11443E-02  1200   0.793E-03 0.343E-06
CGA:   5    -0.593246314774E+03   -0.22530E-03   -0.22535E-03  1200   0.167E-03 0.109E-05
CGA:   6    -0.593246370866E+03   -0.56092E-04   -0.56089E-04  1200   0.451E-04 0.197E-06
CGA:   7    -0.593246387876E+03   -0.17010E-04   -0.17001E-04  1200   0.132E-04 0.170E-06
CGA:   8    -0.593246392827E+03   -0.49512E-05   -0.49459E-05  1200   0.326E-05 0.121E-06
 411 F= -.59324639E+03 E0= -.59324639E+03  d E =-.351465E-03
       N       E                     dE             d eps       ncg     rms          ort
SDA:   1    -0.593231936930E+03    0.14451E-01    0.00000E+00  1200   0.342E-01 0.000E+00
CGA:   2    -0.593243775653E+03   -0.11839E-01   -0.11839E-01  1200   0.946E-02-0.104E-05
CGA:   3    -0.593246138719E+03   -0.23631E-02   -0.23630E-02  1200   0.143E-02-0.604E-06
CGA:   4    -0.593246512369E+03   -0.37365E-03   -0.37367E-03  1200   0.259E-03 0.290E-06
CGA:   5    -0.593246585889E+03   -0.73520E-04   -0.73552E-04  1200   0.542E-04 0.812E-06
CGA:   6    -0.593246604228E+03   -0.18338E-04   -0.18338E-04  1200   0.148E-04 0.397E-07
CGA:   7    -0.593246609794E+03   -0.55664E-05   -0.55617E-05  1200   0.436E-05 0.941E-07
CGA:   8    -0.593246611417E+03   -0.16234E-05   -0.16189E-05  1200   0.107E-05 0.102E-06
 412 F= -.59324661E+03 E0= -.59324661E+03  d E =-.218590E-03
       N       E                     dE             d eps       ncg     rms          ort
SDA:   1    -0.593211462315E+03    0.35147E-01    0.00000E+00  1200   0.823E-01 0.000E+00
CGA:   2    -0.593239925479E+03   -0.28463E-01   -0.28463E-01  1200   0.227E-01 0.191E-05
CGA:   3    -0.593245601958E+03   -0.56765E-02   -0.56762E-02  1200   0.344E-02-0.120E-05
CGA:   4    -0.593246500396E+03   -0.89844E-03   -0.89847E-03  1200   0.626E-03 0.434E-06
CGA:   5    -0.593246678097E+03   -0.17770E-03   -0.17775E-03  1200   0.130E-03 0.124E-05
CGA:   6    -0.593246722062E+03   -0.43965E-04   -0.43964E-04  1200   0.353E-04 0.871E-07
CGA:   7    -0.593246735368E+03   -0.13306E-04   -0.13298E-04  1200   0.104E-04 0.158E-06
CGA:   8    -0.593246739250E+03   -0.38816E-05   -0.38741E-05  1200   0.256E-05 0.162E-06
 413 F= -.59324674E+03 E0= -.59324674E+03  d E =-.346423E-03
       N       E                     dE             d eps       ncg     rms          ort
SDA:   1    -0.593227635229E+03    0.19100E-01    0.00000E+00  1200   0.451E-01 0.000E+00
CGA:   2    -0.593243258967E+03   -0.15624E-01   -0.15624E-01  1200   0.123E-01-0.160E-05
CGA:   3    -0.593246344625E+03   -0.30857E-02   -0.30855E-02  1200   0.188E-02-0.167E-05
CGA:   4    -0.593246835994E+03   -0.49137E-03   -0.49138E-03  1200   0.342E-03 0.194E-06
CGA:   5    -0.593246933296E+03   -0.97303E-04   -0.97330E-04  1200   0.722E-04 0.713E-06
CGA:   6    -0.593246957709E+03   -0.24412E-04   -0.24412E-04  1200   0.197E-04 0.155E-07
CGA:   7    -0.593246965153E+03   -0.74447E-05   -0.74397E-05  1200   0.581E-05 0.944E-07
CGA:   8    -0.593246967313E+03   -0.21601E-05   -0.21553E-05  1200   0.142E-05 0.106E-06
 414 F= -.59324697E+03 E0= -.59324697E+03  d E =-.228063E-03
       N       E                     dE             d eps       ncg     rms          ort
SDA:   1    -0.593211635889E+03    0.35329E-01    0.00000E+00  1200   0.827E-01 0.000E+00
CGA:   2    -0.593240282116E+03   -0.28646E-01   -0.28646E-01  1200   0.226E-01-0.181E-06
CGA:   3    -0.593245937040E+03   -0.56549E-02   -0.56546E-02  1200   0.346E-02-0.247E-05
CGA:   4    -0.593246838054E+03   -0.90101E-03   -0.90103E-03  1200   0.629E-03 0.234E-06
CGA:   5    -0.593247017003E+03   -0.17895E-03   -0.17898E-03  1200   0.132E-03 0.943E-06
CGA:   6    -0.593247061699E+03   -0.44696E-04   -0.44695E-04  1200   0.361E-04 0.439E-07
CGA:   7    -0.593247075309E+03   -0.13610E-04   -0.13603E-04  1200   0.106E-04 0.140E-06
CGA:   8    -0.593247079262E+03   -0.39533E-05   -0.39466E-05  1200   0.260E-05 0.144E-06
 415 F= -.59324708E+03 E0= -.59324708E+03  d E =-.340012E-03
       N       E                     dE             d eps       ncg     rms          ort
SDA:   1    -0.593238719419E+03    0.83559E-02    0.00000E+00  1200   0.199E-01 0.000E+00
CGA:   2    -0.593245618819E+03   -0.68994E-02   -0.68994E-02  1200   0.541E-02 0.399E-06
CGA:   3    -0.593246959157E+03   -0.13403E-02   -0.13401E-02  1200   0.834E-03-0.252E-05
CGA:   4    -0.593247176112E+03   -0.21695E-03   -0.21695E-03  1200   0.147E-03-0.103E-06
CGA:   5    -0.593247218088E+03   -0.41976E-04   -0.41981E-04  1200   0.307E-04 0.144E-06
CGA:   6    -0.593247228308E+03   -0.10220E-04   -0.10219E-04  1200   0.820E-05 0.650E-07
CGA:   7    -0.593247231371E+03   -0.30636E-05   -0.30614E-05  1200   0.240E-05 0.417E-07
CGA:   8    -0.593247232268E+03   -0.89729E-06   -0.89552E-06  1200   0.598E-06 0.319E-07
 416 F= -.59324723E+03 E0= -.59324723E+03  d E =-.153006E-03
       N       E                     dE             d eps       ncg     rms          ort
SDA:   1    -0.593221948789E+03    0.25283E-01    0.00000E+00  1200   0.592E-01 0.000E+00
CGA:   2    -0.593242521617E+03   -0.20573E-01   -0.20573E-01  1200   0.161E-01-0.803E-06
CGA:   3    -0.593246517058E+03   -0.39954E-02   -0.39952E-02  1200   0.249E-02-0.429E-05
CGA:   4    -0.593247164649E+03   -0.64759E-03   -0.64757E-03  1200   0.441E-03-0.255E-06
CGA:   5    -0.593247290665E+03   -0.12602E-03   -0.12602E-03  1200   0.914E-04 0.232E-06
CGA:   6    -0.593247321077E+03   -0.30413E-04   -0.30411E-04  1200   0.243E-04 0.132E-06
CGA:   7    -0.593247330153E+03   -0.90753E-05   -0.90714E-05  1200   0.709E-05 0.841E-07
CGA:   8    -0.593247332804E+03   -0.26513E-05   -0.26485E-05  1200   0.177E-05 0.544E-07
 417 F= -.59324733E+03 E0= -.59324733E+03  d E =-.253542E-03
       N       E                     dE             d eps       ncg     rms          ort
SDA:   1    -0.593241512643E+03    0.58175E-02    0.00000E+00  1200   0.139E-01 0.000E+00
CGA:   2    -0.593246317092E+03   -0.48044E-02   -0.48044E-02  1200   0.381E-02 0.196E-05
CGA:   3    -0.593247264266E+03   -0.94717E-03   -0.94700E-03  1200   0.584E-03-0.232E-05
CGA:   4    -0.593247416230E+03   -0.15196E-03   -0.15196E-03  1200   0.104E-03-0.117E-06
CGA:   5    -0.593247445855E+03   -0.29625E-04   -0.29629E-04  1200   0.216E-04 0.119E-06
CGA:   6    -0.593247453048E+03   -0.71936E-05   -0.71923E-05  1200   0.578E-05 0.913E-07
CGA:   7    -0.593247455223E+03   -0.21744E-05   -0.21726E-05  1200   0.171E-05 0.402E-07
CGA:   8    -0.593247455867E+03   -0.64394E-06   -0.64305E-06  1200   0.431E-06 0.228E-07
 418 F= -.59324746E+03 E0= -.59324746E+03  d E =-.123063E-03
       N       E                     dE             d eps       ncg     rms          ort
SDA:   1    -0.593234244191E+03    0.13211E-01    0.00000E+00  1200   0.310E-01 0.000E+00
CGA:   2    -0.593244979490E+03   -0.10735E-01   -0.10735E-01  1200   0.851E-02 0.229E-05
CGA:   3    -0.593247095548E+03   -0.21161E-02   -0.21158E-02  1200   0.131E-02-0.344E-05
CGA:   4    -0.593247435339E+03   -0.33979E-03   -0.33978E-03  1200   0.233E-03-0.192E-06
CGA:   5    -0.593247501904E+03   -0.66565E-04   -0.66571E-04  1200   0.481E-04 0.165E-06
CGA:   6    -0.593247517938E+03   -0.16034E-04   -0.16032E-04  1200   0.129E-04 0.145E-06
CGA:   7    -0.593247522762E+03   -0.48242E-05   -0.48206E-05  1200   0.379E-05 0.668E-07
CGA:   8    -0.593247524186E+03   -0.14246E-05   -0.14229E-05  1200   0.955E-06 0.354E-07
 419 F= -.59324752E+03 E0= -.59324752E+03  d E =-.191382E-03
       N       E                     dE             d eps       ncg     rms          ort
SDA:   1    -0.593245953166E+03    0.15696E-02    0.00000E+00  1200   0.380E-02 0.000E+00
CGA:   2    -0.593247283350E+03   -0.13302E-02   -0.13302E-02  1200   0.104E-02 0.963E-06
CGA:   3    -0.593247544024E+03   -0.26067E-03   -0.26059E-03  1200   0.161E-03-0.105E-05
CGA:   4    -0.593247585789E+03   -0.41765E-04   -0.41765E-04  1200   0.289E-04 0.654E-08
CGA:   5    -0.593247594077E+03   -0.82884E-05   -0.82930E-05  1200   0.622E-05 0.122E-06
CGA:   6    -0.593247596189E+03   -0.21124E-05   -0.21116E-05  1200   0.173E-05 0.264E-07
CGA:   7    -0.593247596845E+03   -0.65522E-06   -0.65383E-06  1200   0.514E-06 0.185E-07
CGA:   8    -0.593247597037E+03   -0.19277E-06   -0.19213E-06  1200   0.127E-06 0.123E-07
 420 F= -.59324760E+03 E0= -.59324760E+03  d E =-.728509E-04
       N       E                     dE             d eps       ncg     rms          ort
SDA:   1    -0.593233433969E+03    0.14163E-01    0.00000E+00  1200   0.329E-01 0.000E+00
CGA:   2    -0.593244970037E+03   -0.11536E-01   -0.11536E-01  1200   0.905E-02 0.191E-05
CGA:   3    -0.593247228102E+03   -0.22581E-02   -0.22579E-02  1200   0.139E-02-0.303E-05
CGA:   4    -0.593247590436E+03   -0.36233E-03   -0.36233E-03  1200   0.254E-03 0.581E-09
CGA:   5    -0.593247663082E+03   -0.72646E-04   -0.72658E-04  1200   0.538E-04 0.344E-06
CGA:   6    -0.593247681268E+03   -0.18185E-04   -0.18183E-04  1200   0.148E-04 0.102E-06
CGA:   7    -0.593247686871E+03   -0.56031E-05   -0.56000E-05  1200   0.440E-05 0.602E-07
CGA:   8    -0.593247688520E+03   -0.16492E-05   -0.16477E-05  1200   0.109E-05 0.368E-07
 421 F= -.59324769E+03 E0= -.59324769E+03  d E =-.164333E-03
       N       E                     dE             d eps       ncg     rms          ort
SDA:   1    -0.593246569511E+03    0.11174E-02    0.00000E+00  1200   0.276E-02 0.000E+00
CGA:   2    -0.593247535719E+03   -0.96621E-03   -0.96622E-03  1200   0.742E-03-0.302E-06
CGA:   3    -0.593247720067E+03   -0.18435E-03   -0.18429E-03  1200   0.115E-03-0.666E-06
CGA:   4    -0.593247749774E+03   -0.29707E-04   -0.29709E-04  1200   0.204E-04 0.236E-07
CGA:   5    -0.593247755565E+03   -0.57910E-05   -0.57958E-05  1200   0.431E-05 0.128E-06
CGA:   6    -0.593247757035E+03   -0.14698E-05   -0.14698E-05  1200   0.120E-05-0.203E-07
CGA:   7    -0.593247757481E+03   -0.44564E-06   -0.44566E-06  1200   0.350E-06 0.376E-08
CGA:   8    -0.593247757608E+03   -0.12712E-06   -0.12688E-06  1200   0.829E-07 0.140E-07
 422 F= -.59324776E+03 E0= -.59324776E+03  d E =-.690880E-04
       N       E                     dE             d eps       ncg     rms          ort
SDA:   1    -0.593237221065E+03    0.10536E-01    0.00000E+00  1200   0.248E-01 0.000E+00
CGA:   2    -0.593245912618E+03   -0.86916E-02   -0.86916E-02  1200   0.667E-02-0.619E-06
CGA:   3    -0.593247568354E+03   -0.16557E-02   -0.16556E-02  1200   0.103E-02-0.202E-05
CGA:   4    -0.593247835895E+03   -0.26754E-03   -0.26754E-03  1200   0.186E-03 0.600E-07
CGA:   5    -0.593247888871E+03   -0.52977E-04   -0.52991E-04  1200   0.388E-04 0.376E-06
CGA:   6    -0.593247901941E+03   -0.13069E-04   -0.13070E-04  1200   0.105E-04-0.460E-07
CGA:   7    -0.593247905869E+03   -0.39282E-05   -0.39274E-05  1200   0.306E-05 0.193E-07
CGA:   8    -0.593247907003E+03   -0.11347E-05   -0.11326E-05  1200   0.744E-06 0.455E-07
 423 F= -.59324791E+03 E0= -.59324791E+03  d E =-.218484E-03
       N       E                     dE             d eps       ncg     rms          ort
SDA:   1    -0.593205210349E+03    0.42696E-01    0.00000E+00  1200   0.992E-01 0.000E+00
CGA:   2    -0.593239980345E+03   -0.34770E-01   -0.34770E-01  1200   0.267E-01 0.430E-06
CGA:   3    -0.593246601854E+03   -0.66215E-02   -0.66212E-02  1200   0.414E-02-0.406E-05
CGA:   4    -0.593247672491E+03   -0.10706E-02   -0.10706E-02  1200   0.745E-03 0.384E-07
CGA:   5    -0.593247884743E+03   -0.21225E-03   -0.21228E-03  1200   0.156E-03 0.709E-06
CGA:   6    -0.593247937086E+03   -0.52343E-04   -0.52344E-04  1200   0.421E-04-0.480E-07
CGA:   7    -0.593247952853E+03   -0.15767E-04   -0.15764E-04  1200   0.123E-04 0.642E-07
CGA:   8    -0.593247957439E+03   -0.45858E-05   -0.45812E-05  1200   0.302E-05 0.961E-07
 424 F= -.59324796E+03 E0= -.59324796E+03  d E =-.268919E-03
       N       E                     dE             d eps       ncg     rms          ort
SDA:   1    -0.593243242818E+03    0.47100E-02    0.00000E+00  1200   0.110E-01 0.000E+00
CGA:   2    -0.593247095278E+03   -0.38525E-02   -0.38525E-02  1200   0.295E-02 0.453E-06
CGA:   3    -0.593247827964E+03   -0.73269E-03   -0.73279E-03  1200   0.460E-03 0.139E-05
CGA:   4    -0.593247946629E+03   -0.11867E-03   -0.11866E-03  1200   0.839E-04-0.428E-07
CGA:   5    -0.593247970535E+03   -0.23906E-04   -0.23897E-04  1200   0.172E-04-0.258E-06
CGA:   6    -0.593247976242E+03   -0.57071E-05   -0.57061E-05  1200   0.452E-05 0.531E-07
CGA:   7    -0.593247977941E+03   -0.16988E-05   -0.16984E-05  1200   0.131E-05 0.396E-09
CGA:   8    -0.593247978439E+03   -0.49861E-06   -0.50025E-06  1200   0.335E-06-0.268E-07
 425 F= -.59324798E+03 E0= -.59324798E+03  d E =-.289919E-03
       N       E                     dE             d eps       ncg     rms          ort
SDA:   1    -0.593246134375E+03    0.18436E-02    0.00000E+00  1200   0.450E-02 0.000E+00
CGA:   2    -0.593247706483E+03   -0.15721E-02   -0.15721E-02  1200   0.121E-02-0.514E-06
CGA:   3    -0.593248006517E+03   -0.30003E-03   -0.29998E-03  1200   0.186E-03-0.653E-06
CGA:   4    -0.593248054544E+03   -0.48026E-04   -0.48029E-04  1200   0.336E-04 0.411E-07
CGA:   5    -0.593248063999E+03   -0.94552E-05   -0.94633E-05  1200   0.676E-05 0.198E-06
CGA:   6    -0.593248066278E+03   -0.22789E-05   -0.22792E-05  1200   0.180E-05-0.259E-07
CGA:   7    -0.593248066941E+03   -0.66288E-06   -0.66251E-06  1200   0.510E-06 0.130E-07
CGA:   8    -0.593248067125E+03   -0.18393E-06   -0.18328E-06  1200   0.119E-06 0.253E-07
 426 F= -.59324807E+03 E0= -.59324807E+03  d E =-.886852E-04
       N       E                     dE             d eps       ncg     rms          ort
SDA:   1    -0.593230900461E+03    0.17166E-01    0.00000E+00  1200   0.405E-01 0.000E+00
CGA:   2    -0.593245054286E+03   -0.14154E-01   -0.14154E-01  1200   0.109E-01 0.100E-06
CGA:   3    -0.593247754498E+03   -0.27002E-02   -0.27000E-02  1200   0.167E-02-0.210E-05
CGA:   4    -0.593248186602E+03   -0.43210E-03   -0.43211E-03  1200   0.300E-03 0.111E-06
CGA:   5    -0.593248271483E+03   -0.84881E-04   -0.84902E-04  1200   0.615E-04 0.572E-06
CGA:   6    -0.593248292045E+03   -0.20562E-04   -0.20563E-04  1200   0.163E-04-0.588E-07
CGA:   7    -0.593248298110E+03   -0.60645E-05   -0.60620E-05  1200   0.471E-05 0.503E-07
CGA:   8    -0.593248299854E+03   -0.17441E-05   -0.17407E-05  1200   0.115E-05 0.827E-07
 427 F= -.59324830E+03 E0= -.59324830E+03  d E =-.321415E-03
       N       E                     dE             d eps       ncg     rms          ort
SDA:   1    -0.593179006898E+03    0.69291E-01    0.00000E+00  1200   0.162E+00 0.000E+00
CGA:   2    -0.593235635772E+03   -0.56629E-01   -0.56628E-01  1200   0.435E-01 0.105E-04
CGA:   3    -0.593246433903E+03   -0.10798E-01   -0.10798E-01  1200   0.668E-02-0.465E-05
CGA:   4    -0.593248162922E+03   -0.17290E-02   -0.17290E-02  1200   0.120E-02 0.161E-06
CGA:   5    -0.593248503040E+03   -0.34012E-03   -0.34016E-03  1200   0.247E-03 0.106E-05
CGA:   6    -0.593248585471E+03   -0.82432E-04   -0.82432E-04  1200   0.654E-04-0.536E-07
CGA:   7    -0.593248609865E+03   -0.24394E-04   -0.24386E-04  1200   0.190E-04 0.136E-06
CGA:   8    -0.593248616939E+03   -0.70741E-05   -0.70658E-05  1200   0.467E-05 0.171E-06
CGA:   9    -0.593248618699E+03   -0.17602E-05   -0.17588E-05  1200   0.108E-05 0.235E-07
 428 F= -.59324862E+03 E0= -.59324862E+03  d E =-.640260E-03
       N       E                     dE             d eps       ncg     rms          ort
SDA:   1    -0.592970165954E+03    0.27845E+00    0.00000E+00  1200   0.649E+00 0.000E+00
CGA:   2    -0.593196739474E+03   -0.22657E+00   -0.22657E+00  1200   0.174E+00 0.718E-04
CGA:   3    -0.593239914553E+03   -0.43175E-01   -0.43174E-01  1200   0.268E-01-0.846E-05
CGA:   4    -0.593246840773E+03   -0.69262E-02   -0.69262E-02  1200   0.483E-02-0.200E-07
CGA:   5    -0.593248209778E+03   -0.13690E-02   -0.13691E-02  1200   0.994E-03 0.180E-05
CGA:   6    -0.593248541566E+03   -0.33179E-03   -0.33179E-03  1200   0.264E-03 0.150E-06
CGA:   7    -0.593248640023E+03   -0.98458E-04   -0.98437E-04  1200   0.767E-04 0.396E-06
CGA:   8    -0.593248668674E+03   -0.28651E-04   -0.28634E-04  1200   0.190E-04 0.350E-06
CGA:   9    -0.593248675781E+03   -0.71067E-05   -0.71045E-05  1200   0.436E-05 0.487E-07
CGA:  10    -0.593248677452E+03   -0.16712E-05   -0.16689E-05  1200   0.103E-05 0.481E-07
 429 F= -.59324868E+03 E0= -.59324868E+03  d E =-.699012E-03
       N       E                     dE             d eps       ncg     rms          ort
SDA:   1    -0.593200888182E+03    0.47788E-01    0.00000E+00  1200   0.112E+00 0.000E+00
CGA:   2    -0.593239829009E+03   -0.38941E-01   -0.38941E-01  1200   0.299E-01-0.358E-05
CGA:   3    -0.593247245764E+03   -0.74168E-02   -0.74173E-02  1200   0.459E-02 0.437E-05
CGA:   4    -0.593248432845E+03   -0.11871E-02   -0.11871E-02  1200   0.826E-03-0.159E-06
CGA:   5    -0.593248666845E+03   -0.23400E-03   -0.23396E-03  1200   0.170E-03-0.879E-06
CGA:   6    -0.593248723044E+03   -0.56198E-04   -0.56198E-04  1200   0.442E-04 0.227E-06
CGA:   7    -0.593248739572E+03   -0.16528E-04   -0.16528E-04  1200   0.128E-04 0.544E-08
CGA:   8    -0.593248744410E+03   -0.48384E-05   -0.48434E-05  1200   0.323E-05-0.108E-06
 430 F= -.59324874E+03 E0= -.59324874E+03  d E =-.765971E-03
       N       E                     dE             d eps       ncg     rms          ort
SDA:   1    -0.593234655487E+03    0.14084E-01    0.00000E+00  1200   0.333E-01 0.000E+00
CGA:   2    -0.593246280971E+03   -0.11625E-01   -0.11625E-01  1200   0.895E-02-0.858E-07
CGA:   3    -0.593248502497E+03   -0.22215E-02   -0.22214E-02  1200   0.138E-02-0.203E-05
CGA:   4    -0.593248859342E+03   -0.35684E-03   -0.35685E-03  1200   0.249E-03 0.278E-07
CGA:   5    -0.593248929956E+03   -0.70614E-04   -0.70634E-04  1200   0.504E-04 0.479E-06
CGA:   6    -0.593248946777E+03   -0.16821E-04   -0.16821E-04  1200   0.133E-04-0.118E-07
CGA:   7    -0.593248951703E+03   -0.49260E-05   -0.49238E-05  1200   0.381E-05 0.489E-07
CGA:   8    -0.593248953115E+03   -0.14124E-05   -0.14095E-05  1200   0.926E-06 0.641E-07
 431 F= -.59324895E+03 E0= -.59324895E+03  d E =-.208705E-03
