data.CPBr (written by ASE) 

20 	 atoms 
3  atom types
0.0      8.2070000000000007  xlo xhi
0.0      8.2550000000000008  ylo yhi
0.0                  11.759  zlo zhi
                      0                       0                       0  xy xz yz


Atoms 

     1   0   1 -0.63      3.7259780000000005    0.041274999999999125      2.9397500000000001
     2   0   1 -0.63     0.37752200000000002      4.1687750000000001      2.9397500000000001
     3   0   1 -0.63      4.4810220000000012      8.2137250000000002      8.8192500000000003
     4   0   1 -0.63      7.8294779999999999      4.0862250000000007      8.8192500000000003
     5   0   1 -0.63      5.8023490000000013      5.8197749999999999     0.29397500000000004
     6   0   1 -0.63      6.5081509999999998                1.692275      5.5855249999999996
     7   0   1 -0.63      2.4046509999999994      2.4352250000000004      6.1734750000000007
     8   0   1 -0.63      1.6988490000000007      6.5627250000000013      11.465025000000001
     9   0   1 -0.63      2.4046509999999994      2.4352250000000004      11.465025000000001
    10   0   1 -0.63      1.6988490000000007      6.5627250000000013      6.1734750000000007
    11   0   1 -0.63      5.8023490000000013      5.8197749999999999      5.5855249999999996
    12   0   1 -0.63      6.5081509999999998                1.692275     0.29397500000000004
    13   0   2  0.86      4.1855700000000002      3.8881050000000013      2.9397500000000001
    14   0   2  0.86      8.1249300000000009      8.0156050000000008      2.9397500000000001
    15   0   2  0.86      4.0214300000000005      4.3668949999999995      8.8192500000000003
    16   0   2  0.86    0.082070000000000073     0.23939499999999933      8.8192500000000003
    17   0   3  1.03                       0      4.1275000000000004                       0
    18   0   3  1.03      4.1035000000000004                       0      5.8795000000000002
    19   0   3  1.03                       0      4.1275000000000004      5.8795000000000002
    20   0   3  1.03      4.1035000000000004                       0                       0
