LAMMPS data file via write_data, version 23 Jun 2022, timestep = 1

20 atoms
3 atom types

0.026562347450031828 8.18043765254997 xlo xhi
0.028032285220641672 8.22696771477936 ylo yhi
0.01767949865572925 11.741320501344271 zlo zhi
0 0 0 xy xz yz

Masses

1 79.904
2 132.904999
3 204.199997

Pair Coeffs # lj/cut/coul/long

1 0.01023 4.129
2 0.5784 2.927
3 0.01071 2.524

Atoms # full

12 0 1 -0.63 6.492643215391804 1.7090979248840545 0.31055759191561905 0 0 0
1 0 1 -0.63 3.728346282601924 0.06910961908480737 2.9485897493032094 0 0 0
13 0 2 0.86 4.184702354802198 3.889111944217397 2.9485897493762336 0 0 0
6 0 1 -0.63 6.49264321540447 1.709097924879183 5.586621906714777 0 0 0
7 0 1 -0.63 2.4157055628983466 2.4464343603989427 6.1723780932150705 0 0 0
18 0 3 1.03 4.10349999999778 0.02803228522657619 5.879500000032125 0 0 0
19 0 3 1.03 8.180437652546397 4.1274999999891415 5.87950000004411 -1 0 0
4 0 1 -0.63 7.805283935139221 4.08642266615727 8.810410250691614 0 0 0
16 0 2 0.86 0.10776470225754636 0.266420341015216 8.81041025064372 0 0 0
9 0 1 -0.63 2.415705562915886 2.4464343604057643 11.44844240814284 0 0 0
5 0 1 -0.63 5.791294437085091 5.808565639595211 0.31055759190977317 0 0 0
2 0 1 -0.63 0.4017160648636994 4.16857733384663 2.9485897493103286 0 0 0
14 0 2 0.86 8.099235297750434 7.98857965898545 2.9485897493519486 0 0 0
10 0 1 -0.63 1.7143567845916305 6.545902075115951 6.172378093226762 0 0 0
11 0 1 -0.63 5.791294437102629 5.8085656396049545 5.58662190674011 0 0 0
3 0 1 -0.63 4.478653717402954 8.185890380922988 8.810410250696133 0 0 0
15 0 2 0.86 4.022297645205786 4.365888055793245 8.810410250626965 0 0 0
8 0 1 -0.63 1.7143567846052716 6.545902075115951 11.448442408131147 0 0 0
17 0 3 1.03 8.180437652549838 4.1275000000155675 11.741320501302022 -1 0 -1
20 0 3 1.03 4.103499999990927 8.226967714754 11.741320501311723 0 -1 -1

Velocities

12 0 0 0
1 0 0 0
13 0 0 0
6 0 0 0
7 0 0 0
18 0 0 0
19 0 0 0
4 0 0 0
16 0 0 0
9 0 0 0
5 0 0 0
2 0 0 0
14 0 0 0
10 0 0 0
11 0 0 0
3 0 0 0
15 0 0 0
8 0 0 0
17 0 0 0
20 0 0 0
