LAMMPS data file via write_data, version 23 Jun 2022, timestep = 10001

20 atoms
3 atom types

0.026562347450031828 8.18043765254997 xlo xhi
0.028032285220641672 8.22696771477936 ylo yhi
0.01767949865572925 11.741320501344271 zlo zhi
0 0 0 xy xz yz

Masses

1 79.904
2 132.904999
3 204.199997

Pair Coeffs # lj/cut/coul/long

1 0.01023 4.129
2 0.5784 2.927
3 0.01071 2.524

Atoms # full

9 0 1 -0.63 2.2459145196849564 2.2671249079056537 0.44514443778464585 0 0 1
20 0 3 1.03 4.178885650790385 0.03469718510089866 0.11874660117121183 0 0 0
14 0 2 0.86 0.28808301305201434 0.1326190610214423 2.8224215964628345 1 1 0
6 0 1 -0.63 6.6890980774889535 1.5467782348317298 5.716960790727995 0 0 0
7 0 1 -0.63 2.6126964227306106 2.682187724412795 5.472895659627579 0 0 0
18 0 3 1.03 3.969569919085982 0.09554219242904168 5.949729818015835 0 0 0
4 0 1 -0.63 0.14342405223806445 3.832417660718235 8.732449874764372 1 0 0
15 0 2 0.86 3.9454692919754972 3.9166690736601786 9.145653721446463 0 0 0
3 0 1 -0.63 3.817440698239556 0.3213659402671227 8.932812165985695 0 1 0
12 0 1 -0.63 6.518713957135736 1.6846081027513786 11.531076953484373 0 0 -1
2 0 1 -0.63 8.02495088948775 4.369353664086838 2.8470666495281924 -1 0 0
1 0 1 -0.63 4.399827552877116 7.928554139555973 3.0016862113724896 0 -1 0
13 0 2 0.86 4.331326645883227 4.286375614622353 2.7687509026454418 0 0 0
10 0 1 -0.63 1.6276760753292034 6.584555247871221 5.894694736613437 0 0 0
11 0 1 -0.63 5.665023049358744 5.786166206386175 6.513949110739031 0 0 0
19 0 3 1.03 8.085875341812262 4.218438592866658 5.880411036564919 -1 0 0
16 0 2 0.86 7.844534065739649 7.977842590177647 8.639991980656205 -1 -1 0
5 0 1 -0.63 6.02183471583087 5.977005397257269 11.443617681937335 0 0 -1
8 0 1 -0.63 1.8854534784850032 6.418690876127269 11.572036861372275 0 0 0
17 0 3 1.03 8.176076340969313 4.141613464043296 11.728800640291926 -1 0 -1

Velocities

9 -0.9855159531288618 3.3217973112397705 -3.1751320222581834
20 -0.4937944120241715 0.6360229602900493 -0.4119364768204294
14 -0.16070601256019396 1.1578829796068448 -0.782268931449391
6 0.9012360468704297 2.67368245923624 -0.6631898294304218
7 0.5995206137885563 -0.8021172497101521 -0.5138639743758209
18 0.2341297059715104 -0.1993841829763202 0.007523828984712822
4 0.5448596721691171 0.2957967842921536 -0.17551411212569312
15 -1.237277584893404 0.04381737968411111 1.7720736940487567
3 1.0203489825010585 0.1340145477404648 -0.31012715336263813
12 -1.864691014661793 -1.112190696331081 0.031402396979162556
2 3.0057607670602717 1.1701139565243124 -0.5788994883405487
1 -2.263649152647816 0.2963052752930139 1.4586091156713143
13 0.023396357697893864 -1.2302337041795375 0.5133217392239071
10 2.329937397453929 -0.8974575475138863 0.8339844585249768
11 -1.3342941662512493 -1.0085055185118212 1.0139348570629179
19 -0.28235907324575615 0.5238875630005843 0.2506757136954358
16 0.5295633938797354 -0.08536790894074275 0.29734575544765096
5 2.2142534061269483 -2.4050672087881555 1.3894332858964458
8 -1.2142793753881809 -1.8119951383462825 -0.8692400700774909
17 -0.06369385997694751 -0.8294101841725959 -0.4082274076184658
