LAMMPS data file via write_data, version 23 Jun 2022, timestep = 0

20 atoms
3 atom types

0.012142711714895083 8.194857288285164 xlo xhi
0.009856202779403684 8.245143797220539 ylo yhi
-0.006140077741126966 11.765140077741071 zlo zhi
0.0012206714035340681 -0.0008372883655226683 -0.0006564717470791185 xy xz yz

Masses

1 79.904
2 132.904999
3 204.199997

Pair Coeffs # lj/cut/coul/long

1 0.01023 4.129
2 0.5784 2.927
3 0.01071 2.524

Atoms # full

1 0 1 -0.63 3.808319548466133 0.24919965828545856 2.8977751348065746 0 0 0
2 0 1 -0.63 8.094412615742561 3.9814884963474078 2.926168469910222 -1 0 0
6 0 1 -0.63 6.492248496574816 1.645339066687176 6.228783971979391 0 0 0
7 0 1 -0.63 2.325997465976726 2.396076142910484 6.311351440879599 0 0 0
16 0 2 0.86 0.44648531116946477 0.11225813025263855 8.743033238985245 0 0 0
17 0 3 1.03 8.157698005915256 4.052005386969621 11.746132073353266 -1 0 -1
12 0 1 -0.63 6.5761959533292815 1.588204336051758 11.393211666571991 0 0 -1
9 0 1 -0.63 2.5469452285571936 2.457341957934064 11.442622648282027 0 0 0
5 0 1 -0.63 5.828545219831219 5.7076852134332485 0.3965583530215719 0 0 0
8 0 1 -0.63 1.7855296599426584 6.380544221893028 0.21778707092182603 0 0 1
14 0 2 0.86 8.102564441226324 8.192330057628517 3.029257257659132 0 0 0
13 0 2 0.86 3.7319574085284977 4.277734693419165 2.867402947795635 0 0 0
10 0 1 -0.63 1.8502281385016344 6.506595379193173 5.70604420015068 0 0 0
11 0 1 -0.63 5.788960349479739 5.776361427791183 5.559616508311203 0 0 0
19 0 3 1.03 8.163242640085862 4.137215063392908 5.938291408633431 -1 0 0
18 0 3 1.03 4.1713561423268075 8.226300119083202 5.89007420723751 0 -1 0
4 0 1 -0.63 8.106426986418906 4.518135372898416 8.861761209382546 0 0 0
3 0 1 -0.63 4.202875535974316 7.892789730298764 8.824860878582028 0 0 0
15 0 2 0.86 4.281576461291835 4.36395403661877 8.737577342510246 0 0 0
20 0 3 1.03 4.017317245156774 8.209804595927382 11.723224199079546 0 -1 -1

Velocities

1 -1.1788737623255172 -2.52658304884704 -0.43789808288401794
2 0.15696875674718064 1.2539551600495267 -0.3771713078184329
6 0.789117286384298 -0.8444439846152947 -1.7985856268572533
7 2.1674101948840456 -0.8022595177959789 -0.5472769439460831
16 1.0993231191535315 -0.7465349945437941 -0.8361205051547176
17 -0.38925594667028807 -1.463263409903743 1.5797384874215448
12 -0.5143472047819387 -0.19257925067439532 0.4482168371584799
9 -1.3703297152511789 2.258395427143888 0.01113363241843854
5 0.31882717831364193 1.252657878978903 -2.2379512047111296
8 1.0816432005887617 0.9995525844691339 1.7297932937427947
14 0.28252875540606925 0.9144055924629035 0.020244791032655245
13 0.11357799763661197 -0.6248291557319028 1.768170668393967
10 -1.4992055056661988 1.3297517338148697 -1.0019774950889684
11 -0.4637496090985564 -0.06920473446851537 0.9898019398494621
19 1.3718778617089147 -0.23836685224301254 -0.5358901847034809
18 -0.147504936810651 1.1040826823620489 -0.16468148065287166
4 1.7628509679354352 0.31230599197778897 -2.605865396759033
3 -4.282092373952675 0.6052828956055641 -0.33622711307111136
15 -0.2747572187817904 -1.795343292585682 -1.1466058735345404
20 -0.44325655216875226 0.6638505190772301 1.6592942592130706
