ITEM: TIMESTEP
10500
ITEM: NUMBER OF ATOMS
20
ITEM: BOX BOUNDS xy xz yz pp pp pp
-7.4843880256912962e-05 4.5970381735081363e+00 -1.5759499381930721e-05
-9.3006008184417754e-05 9.7200825864671785e+00 -2.0910872745724974e-05
-1.1241542412714989e-04 1.6810112415424172e+01 -1.0419541035957432e-05
ITEM: ATOMS id type xs ys zs
18 3 0.784769 0.170727 0.0608181
7 1 0.257195 0.477009 0.39756
10 1 0.782273 0.322457 0.216558
14 2 0.235327 0.0945924 0.321216
3 1 0.719654 0.17829 0.487289
19 3 0.235486 0.324408 0.557553
11 1 0.237001 0.18257 0.703848
6 1 0.746427 0.0321417 0.895567
15 2 0.736503 0.408131 0.828334
2 1 0.271478 0.334744 1.01817
13 2 0.277193 0.594796 0.170154
8 1 0.348134 0.9702 0.104018
9 1 0.78741 0.81113 0.286166
1 1 0.206233 0.833621 0.501267
17 3 0.734629 0.66854 0.438007
5 1 0.726479 0.508231 0.604791
12 1 0.175581 0.696327 0.789107
16 2 0.672535 0.888136 0.670831
20 3 0.291138 0.841325 0.946506
4 1 0.754993 0.664359 1.00403
ITEM: TIMESTEP
11000
ITEM: NUMBER OF ATOMS
20
ITEM: BOX BOUNDS xy xz yz pp pp pp
-2.6278057172697718e-04 4.5971580666219252e+00 -3.8249055392649539e-05
-3.7168678098783677e-04 9.7203348755245766e+00 -6.6464894420916718e-05
-4.6273504258938317e-04 1.6810462735042570e+01 -3.6811256444540188e-05
ITEM: ATOMS id type xs ys zs
18 3 0.789405 0.155676 0.0580604
7 1 0.241867 0.479394 0.39294
10 1 0.780166 0.300543 0.208561
14 2 0.26945 0.10021 0.323866
3 1 0.734589 0.161859 0.493557
19 3 0.259072 0.34869 0.555992
11 1 0.168008 0.209967 0.702834
6 1 0.740079 0.0167919 0.90105
15 2 0.717092 0.405305 0.827718
2 1 0.262281 0.334673 1.00778
13 2 0.266561 0.597382 0.179684
8 1 0.255533 0.968288 0.104845
9 1 0.792457 0.825961 0.282029
1 1 0.259054 0.829878 0.494091
17 3 0.75307 0.67187 0.435583
5 1 0.752952 0.531205 0.593445
12 1 0.206383 0.689915 0.794255
16 2 0.689437 0.912717 0.680899
20 3 0.254345 0.809693 0.951285
4 1 0.759369 0.661515 1.00202
ITEM: TIMESTEP
11500
ITEM: NUMBER OF ATOMS
20
ITEM: BOX BOUNDS xy xz yz pp pp pp
-5.5157705273158096e-04 4.5973600103106573e+00 -6.7284257393395065e-05
-8.4212485973489566e-04 9.7207500283550576e+00 -1.2428248468798612e-04
-1.0255972124697229e-03 1.6811025597212435e+01 -9.2096504709967308e-05
ITEM: ATOMS id type xs ys zs
18 3 0.702264 0.177622 0.057518
7 1 0.305867 0.475114 0.389136
10 1 0.800815 0.314677 0.213862
14 2 0.310903 0.0955244 0.33662
3 1 0.803157 0.165983 0.503411
19 3 0.289831 0.341273 0.55389
11 1 0.213878 0.174987 0.711304
6 1 0.679822 0.024587 0.894012
15 2 0.709906 0.402445 0.828455
2 1 0.209186 0.341654 0.982621
13 2 0.289612 0.587194 0.173532
8 1 0.217527 0.987222 0.110771
9 1 0.799137 0.798307 0.292475
1 1 0.247969 0.826189 0.499975
17 3 0.77436 0.656647 0.439206
5 1 0.782016 0.518622 0.592672
12 1 0.218189 0.694169 0.799696
16 2 0.723772 0.890209 0.672423
20 3 0.217203 0.841212 0.950405
4 1 0.707331 0.676636 0.989118
ITEM: TIMESTEP
12000
ITEM: NUMBER OF ATOMS
20
ITEM: BOX BOUNDS xy xz yz pp pp pp
-9.2593138593788360e-04 4.5976422597863378e+00 -1.0390794496612230e-04
-1.4829529039774489e-03 9.7213242877395949e+00 -1.7976365464100218e-04
-1.8006541875889535e-03 1.6811800654187536e+01 -1.5866516442736184e-04
ITEM: ATOMS id type xs ys zs
18 3 0.751248 0.170715 0.0602161
7 1 0.214255 0.470641 0.409426
10 1 0.795153 0.301553 0.205745
14 2 0.299429 0.0987155 0.322928
3 1 0.747784 0.169824 0.497201
19 3 0.251542 0.328005 0.561335
11 1 0.200929 0.178954 0.71096
6 1 0.73742 0.0279352 0.893234
15 2 0.738466 0.407684 0.828378
2 1 0.23877 0.333521 1.00366
13 2 0.304912 0.590284 0.174146
8 1 0.276193 0.983861 0.10282
9 1 0.784051 0.792389 0.288544
1 1 0.222968 0.838531 0.4984
17 3 0.722501 0.661462 0.441253
5 1 0.73586 0.515671 0.608113
12 1 0.206951 0.695581 0.791473
16 2 0.69127 0.91511 0.660918
20 3 0.259088 0.850126 0.942572
4 1 0.822906 0.64558 0.999357
ITEM: TIMESTEP
12500
ITEM: NUMBER OF ATOMS
20
ITEM: BOX BOUNDS xy xz yz pp pp pp
-1.4140521301021906e-03 4.5980043131533925e+00 -1.6991433869133123e-04
-2.2886633639647696e-03 9.7220689446495587e+00 -2.3982463801770019e-04
-2.7772553359787472e-03 1.6812777255335916e+01 -2.1971871444389457e-04
ITEM: ATOMS id type xs ys zs
18 3 0.78638 0.142237 0.0584296
7 1 0.251937 0.480943 0.398345
10 1 0.758713 0.314966 0.208333
14 2 0.287929 0.092243 0.324261
3 1 0.742558 0.172387 0.499838
19 3 0.218127 0.351954 0.555257
11 1 0.224256 0.217568 0.715885
6 1 0.792767 0.0121123 0.891087
15 2 0.700289 0.410378 0.828058
2 1 0.289923 0.332063 1.00814
13 2 0.313031 0.602854 0.17078
8 1 0.298595 0.959962 0.0931778
9 1 0.76948 0.812313 0.289714
1 1 0.213612 0.832494 0.512733
17 3 0.716383 0.66646 0.443565
5 1 0.722017 0.537629 0.602459
12 1 0.184985 0.676897 0.78337
16 2 0.690451 0.910305 0.677113
20 3 0.268849 0.819118 0.939757
4 1 0.791184 0.67612 1.00422
ITEM: TIMESTEP
13000
ITEM: NUMBER OF ATOMS
20
ITEM: BOX BOUNDS xy xz yz pp pp pp
-1.9863708497276965e-03 4.5984505506067634e+00 -2.3591327397662988e-04
-3.2577037930002139e-03 9.7229828917985195e+00 -2.9990696898024398e-04
-3.9645647192653273e-03 1.6813964564719175e+01 -2.7481199451478267e-04
ITEM: ATOMS id type xs ys zs
18 3 0.715933 0.165901 0.0637058
7 1 0.322637 0.482555 0.396172
10 1 0.798396 0.311755 0.216492
14 2 0.32558 0.0976312 0.329842
3 1 0.800641 0.15846 0.494103
19 3 0.276045 0.323189 0.558016
11 1 0.179079 0.178423 0.713362
6 1 0.65376 0.0386693 0.892163
15 2 0.681226 0.402198 0.831364
2 1 0.21413 0.337078 1.0005
13 2 0.310298 0.583954 0.173576
8 1 0.244515 0.975623 0.111231
9 1 0.810084 0.80505 0.2915
1 1 0.269648 0.839584 0.496442
17 3 0.804745 0.660528 0.443116
5 1 0.791977 0.520319 0.590288
12 1 0.194979 0.702979 0.785621
16 2 0.689087 0.902489 0.675376
20 3 0.190132 0.852217 0.932739
4 1 0.743448 0.667646 1.00142
ITEM: TIMESTEP
13500
ITEM: NUMBER OF ATOMS
20
ITEM: BOX BOUNDS xy xz yz pp pp pp
-2.6081759389900857e-03 4.5989772371152648e+00 -2.8754644216995588e-04
-4.4327478041034330e-03 9.7240629219057162e+00 -3.4339238156339051e-04
-5.3773899169903203e-03 1.6815377389916968e+01 -3.6982589842791388e-04
ITEM: ATOMS id type xs ys zs
18 3 0.767458 0.169902 0.0645803
7 1 0.235689 0.479977 0.400621
10 1 0.822341 0.313185 0.222604
14 2 0.309155 0.0903256 0.320756
3 1 0.737494 0.158882 0.484169
19 3 0.25444 0.330343 0.552662
11 1 0.176166 0.174025 0.706905
6 1 0.776763 0.0371486 0.897692
15 2 0.699799 0.409889 0.824291
2 1 0.252064 0.328786 1.00141
13 2 0.317687 0.611258 0.180835
8 1 0.2174 0.969173 0.107387
9 1 0.811731 0.814752 0.291218
1 1 0.24101 0.82784 0.495886
17 3 0.739761 0.662906 0.441081
5 1 0.735362 0.500615 0.609671
12 1 0.17466 0.689615 0.797091
16 2 0.687953 0.894297 0.667507
20 3 0.247996 0.845434 0.939559
4 1 0.77037 0.674467 1.00176
ITEM: TIMESTEP
14000
ITEM: NUMBER OF ATOMS
20
ITEM: BOX BOUNDS xy xz yz pp pp pp
-3.2730099887839474e-03 4.5995808657847270e+00 -3.4087182685116834e-04
-5.7715731209385746e-03 9.7253069781055341e+00 -3.5127237720541601e-04
-7.0155474370100675e-03 1.6817015547437009e+01 -4.6459501546097115e-04
ITEM: ATOMS id type xs ys zs
18 3 0.767861 0.145085 0.0632536
7 1 0.222229 0.492528 0.399135
10 1 0.790762 0.312259 0.213226
14 2 0.29549 0.106552 0.321835
3 1 0.707804 0.183328 0.493057
19 3 0.218265 0.347012 0.552188
11 1 0.213252 0.192772 0.703115
6 1 0.787384 0.0116336 0.90046
15 2 0.699772 0.380909 0.823428
2 1 0.261278 0.338562 1.00157
13 2 0.316615 0.583154 0.171244
8 1 0.308289 0.968284 0.10516
9 1 0.799424 0.809177 0.272899
1 1 0.205864 0.853093 0.508873
17 3 0.688577 0.691543 0.440558
5 1 0.656649 0.533628 0.598538
12 1 0.229621 0.674527 0.79449
16 2 0.698829 0.904594 0.691682
20 3 0.322253 0.818336 0.940862
4 1 0.807415 0.666394 1.00388
ITEM: TIMESTEP
14500
ITEM: NUMBER OF ATOMS
20
ITEM: BOX BOUNDS xy xz yz pp pp pp
-4.0207515172738101e-03 4.6002613806109185e+00 -4.0352892407751243e-04
-7.2742763452654678e-03 9.7267103179170213e+00 -3.5584198228744162e-04
-8.8765830985511312e-03 1.6818876583098543e+01 -5.6395842831521591e-04
ITEM: ATOMS id type xs ys zs
18 3 0.691762 0.162463 0.0669729
7 1 0.279345 0.476092 0.390689
10 1 0.785147 0.318137 0.213596
14 2 0.284699 0.0944334 0.334641
3 1 0.777953 0.173439 0.492725
19 3 0.299098 0.328309 0.559162
11 1 0.218624 0.185161 0.710539
6 1 0.72193 0.0267048 0.890436
15 2 0.678544 0.39848 0.823172
2 1 0.200887 0.324476 1.00525
13 2 0.274306 0.599558 0.169595
8 1 0.207357 0.989942 0.114772
9 1 0.801354 0.805388 0.291545
1 1 0.268342 0.836429 0.503302
17 3 0.778985 0.661858 0.439392
5 1 0.828565 0.513528 0.597689
12 1 0.241955 0.691657 0.787884
16 2 0.766942 0.891879 0.664519
20 3 0.211038 0.850754 0.942935
4 1 0.70993 0.676427 0.993385
ITEM: TIMESTEP
15000
ITEM: NUMBER OF ATOMS
20
ITEM: BOX BOUNDS xy xz yz pp pp pp
-4.8913020796424091e-03 4.6010158202675377e+00 -4.7835944188692156e-04
-8.8949214221159482e-03 9.7282648374496290e+00 -3.9712237023019017e-04
-1.0953237779453513e-02 1.6820953237779488e+01 -6.3008397255774108e-04
ITEM: ATOMS id type xs ys zs
18 3 0.773889 0.175614 0.0638774
7 1 0.217615 0.453639 0.401181
10 1 0.759457 0.311872 0.216237
14 2 0.228269 0.09379 0.328116
3 1 0.741349 0.15074 0.498346
19 3 0.289149 0.324315 0.560074
11 1 0.240833 0.189275 0.710701
6 1 0.730115 0.0339204 0.884646
15 2 0.726672 0.41586 0.827479
2 1 0.228521 0.334692 1.00188
13 2 0.284574 0.594396 0.179718
8 1 0.255652 0.999443 0.100441
9 1 0.764275 0.808725 0.294912
1 1 0.237415 0.812644 0.494618
17 3 0.751286 0.649888 0.445025
5 1 0.708292 0.512428 0.603778
12 1 0.252463 0.696179 0.788264
16 2 0.771961 0.887537 0.658531
20 3 0.219721 0.864327 0.938774
4 1 0.757921 0.674297 0.995434
ITEM: TIMESTEP
15500
ITEM: NUMBER OF ATOMS
20
ITEM: BOX BOUNDS xy xz yz pp pp pp
-5.8670843459352456e-03 4.6018443050101805e+00 -5.7595060699306767e-04
-1.0628429025352276e-02 9.7299726758893836e+00 -4.4682872879346674e-04
-1.3224440506260357e-02 1.6823224440506298e+01 -6.5575313602426392e-04
ITEM: ATOMS id type xs ys zs
18 3 0.801619 0.150493 0.0597678
7 1 0.223673 0.484474 0.393812
10 1 0.735894 0.297378 0.205218
14 2 0.224226 0.095558 0.334426
3 1 0.667304 0.175305 0.507389
19 3 0.190817 0.353274 0.561101
11 1 0.255328 0.211493 0.713483
6 1 0.767287 0.00629656 0.898116
15 2 0.7379 0.38974 0.829989
2 1 0.279138 0.33387 1.00437
13 2 0.27701 0.589961 0.167697
8 1 0.30854 0.96864 0.0920467
9 1 0.746049 0.793738 0.285056
1 1 0.210233 0.828479 0.496659
17 3 0.6954 0.670982 0.436095
5 1 0.73627 0.548711 0.592083
12 1 0.28017 0.68456 0.785937
16 2 0.78354 0.924955 0.682534
20 3 0.295104 0.824471 0.942183
4 1 0.795993 0.668687 1.00366
ITEM: TIMESTEP
16000
ITEM: NUMBER OF ATOMS
20
ITEM: BOX BOUNDS xy xz yz pp pp pp
-6.9429727722390188e-03 4.6027425334128287e+00 -6.9783491053127705e-04
-1.2476260189180414e-02 9.7318302112897310e+00 -5.0260444892461181e-04
-1.5689826069641113e-02 1.6825689826069695e+01 -6.4604889953073048e-04
ITEM: ATOMS id type xs ys zs
18 3 0.683998 0.153351 0.0628152
7 1 0.269479 0.480261 0.39746
10 1 0.726006 0.308323 0.216605
14 2 0.223575 0.0822676 0.324344
3 1 0.792115 0.17386 0.503433
19 3 0.27342 0.337319 0.558335
11 1 0.298478 0.186403 0.710416
6 1 0.727656 0.0339899 0.907953
15 2 0.718106 0.412553 0.82717
2 1 0.217133 0.321441 1.00058
13 2 0.247335 0.5946 0.160444
8 1 0.193081 0.981143 0.108665
9 1 0.729207 0.808432 0.292927
1 1 0.296668 0.822195 0.50215
17 3 0.794564 0.659232 0.439228
5 1 0.762787 0.531057 0.606574
12 1 0.249154 0.706728 0.791203
16 2 0.813564 0.908055 0.661535
20 3 0.23515 0.841298 0.941781
4 1 0.766834 0.672851 1.00062
ITEM: TIMESTEP
16500
ITEM: NUMBER OF ATOMS
20
ITEM: BOX BOUNDS xy xz yz pp pp pp
-8.1090395881769344e-03 4.6037118505621670e+00 -8.2881155368097091e-04
-1.4456961230211571e-02 9.7338376489993408e+00 -5.6837747236955928e-04
-1.8339829496407438e-02 1.6828339829496471e+01 -6.1931223093623510e-04
ITEM: ATOMS id type xs ys zs
18 3 0.729821 0.16229 0.0629709
7 1 0.244522 0.468677 0.401021
10 1 0.732467 0.298999 0.217392
14 2 0.222361 0.0891603 0.32509
3 1 0.763879 0.168633 0.497753
19 3 0.263194 0.3291 0.560592
11 1 0.290885 0.193554 0.713836
6 1 0.757729 0.0367853 0.902981
15 2 0.743169 0.415312 0.833009
2 1 0.220657 0.348142 1.00286
13 2 0.196479 0.579851 0.17392
8 1 0.237768 0.976416 0.105322
9 1 0.724479 0.799022 0.280601
1 1 0.261993 0.823279 0.49893
17 3 0.74288 0.655835 0.438453
5 1 0.788275 0.517396 0.608456
12 1 0.293132 0.70651 0.785415
16 2 0.801387 0.910636 0.657403
20 3 0.253812 0.846888 0.941213
4 1 0.771401 0.686014 0.99479
ITEM: TIMESTEP
17000
ITEM: NUMBER OF ATOMS
20
ITEM: BOX BOUNDS xy xz yz pp pp pp
-9.3581413565617423e-03 4.6047511340686818e+00 -9.5963600933186323e-04
-1.6590210740785004e-02 9.7359885858209019e+00 -6.4737127858514377e-04
-2.1157022949482428e-02 1.6831157022949512e+01 -6.0162491994673580e-04
ITEM: ATOMS id type xs ys zs
18 3 0.828145 0.151409 0.0589971
7 1 0.206204 0.464983 0.382747
10 1 0.724666 0.292057 0.204845
14 2 0.228332 0.0953852 0.333228
3 1 0.705913 0.186308 0.497414
19 3 0.228764 0.354939 0.556243
11 1 0.300164 0.20266 0.704989
6 1 0.800331 0.0190511 0.893718
15 2 0.764042 0.413948 0.832475
2 1 0.284957 0.312643 1.00457
13 2 0.226011 0.593489 0.174051
8 1 0.314541 0.966703 0.0980808
9 1 0.731895 0.801803 0.284341
1 1 0.225541 0.840656 0.49865
17 3 0.68278 0.663183 0.435642
5 1 0.691115 0.539592 0.605258
12 1 0.254607 0.680826 0.795785
16 2 0.773324 0.911704 0.686654
20 3 0.270709 0.830173 0.944558
4 1 0.747286 0.669313 0.997346
ITEM: TIMESTEP
17500
ITEM: NUMBER OF ATOMS
20
ITEM: BOX BOUNDS xy xz yz pp pp pp
-1.0682878584733395e-02 4.6058553425561808e+00 -1.1095560450751468e-03
-1.8844778810356295e-02 9.7382781331162995e+00 -7.1797998351459625e-04
-2.4135785478588235e-02 1.6834135785478587e+01 -5.6664569409151664e-04
ITEM: ATOMS id type xs ys zs
18 3 0.75781 0.180007 0.0557575
7 1 0.239605 0.464407 0.392176
10 1 0.69906 0.316209 0.20601
14 2 0.231122 0.0913826 0.326373
3 1 0.77323 0.162936 0.497246
19 3 0.280991 0.314974 0.561615
11 1 0.291445 0.184767 0.714369
6 1 0.702218 0.0252892 0.894355
15 2 0.759132 0.392203 0.820809
2 1 0.281611 0.343796 0.997097
13 2 0.192498 0.592923 0.174678
8 1 0.243816 1.00233 0.114814
9 1 0.705943 0.821 0.293449
1 1 0.276756 0.830245 0.494794
17 3 0.758348 0.659288 0.439465
5 1 0.77752 0.513631 0.614626
12 1 0.292298 0.698904 0.791424
16 2 0.80712 0.907034 0.663626
20 3 0.210867 0.834437 0.942401
4 1 0.712858 0.692722 1.01574
ITEM: TIMESTEP
18000
ITEM: NUMBER OF ATOMS
20
ITEM: BOX BOUNDS xy xz yz pp pp pp
-1.2051319272255383e-02 4.6070197836321247e+00 -1.2632463229341065e-03
-2.1189935284595597e-02 9.7407008079608239e+00 -7.6828931724245682e-04
-2.7288997292171338e-02 1.6837288997292113e+01 -4.8912732380027208e-04
ITEM: ATOMS id type xs ys zs
18 3 0.705588 0.182044 0.0551698
7 1 0.255196 0.45717 0.396056
10 1 0.71577 0.315557 0.210679
14 2 0.230392 0.0959487 0.324713
3 1 0.749165 0.159814 0.505973
19 3 0.258026 0.334919 0.554797
11 1 0.307825 0.175937 0.712083
6 1 0.742615 0.0159559 0.892715
15 2 0.78955 0.405941 0.810569
2 1 0.22952 0.33585 0.997218
13 2 0.21949 0.608112 0.176122
8 1 0.250968 0.987358 0.10299
9 1 0.739691 0.803998 0.289272
1 1 0.287746 0.810981 0.494336
17 3 0.772601 0.66804 0.447477
5 1 0.765739 0.532285 0.602762
12 1 0.29629 0.688001 0.799543
16 2 0.792155 0.889236 0.675121
20 3 0.211701 0.834844 0.945549
4 1 0.74004 0.667639 1.01115
ITEM: TIMESTEP
18500
ITEM: NUMBER OF ATOMS
20
ITEM: BOX BOUNDS xy xz yz pp pp pp
-1.3500076121640975e-02 4.6082425531397622e+00 -1.4441463006065215e-03
-2.3626593477820999e-02 9.7432385608032988e+00 -8.1337668131315692e-04
-3.0582632182269844e-02 1.6840582632182237e+01 -3.8803267455171468e-04
ITEM: ATOMS id type xs ys zs
18 3 0.789797 0.149478 0.0534895
7 1 0.206099 0.475555 0.387852
10 1 0.71825 0.302792 0.201889
14 2 0.220613 0.0928582 0.324233
3 1 0.707733 0.179047 0.497799
19 3 0.169621 0.352475 0.560597
11 1 0.271899 0.196618 0.707068
6 1 0.848823 0.00739355 0.898996
15 2 0.7966 0.401071 0.828189
2 1 0.28191 0.325099 0.999413
13 2 0.240018 0.5886 0.174455
8 1 0.238495 0.97062 0.106438
9 1 0.710495 0.813641 0.281834
1 1 0.19827 0.852802 0.499613
17 3 0.697792 0.684269 0.439967
5 1 0.693166 0.545042 0.60673
12 1 0.275863 0.693533 0.791903
16 2 0.799221 0.917163 0.681908
20 3 0.314093 0.808122 0.949732
4 1 0.828439 0.652822 0.996193
ITEM: TIMESTEP
19000
ITEM: NUMBER OF ATOMS
20
ITEM: BOX BOUNDS xy xz yz pp pp pp
-1.4975467355454387e-02 4.6095235637710870e+00 -1.6269334555459800e-03
-2.6156863748670219e-02 9.7458896743974144e+00 -8.2497012885801829e-04
-3.4011218560877639e-02 1.6844011218560880e+01 -2.6718935129104978e-04
ITEM: ATOMS id type xs ys zs
18 3 0.71915 0.173784 0.0631098
7 1 0.286591 0.461857 0.395459
10 1 0.716824 0.293289 0.217668
14 2 0.239836 0.0927807 0.335402
3 1 0.770353 0.162032 0.492913
19 3 0.298202 0.314595 0.558909
11 1 0.277935 0.199479 0.708107
6 1 0.757229 0.0593684 0.897052
15 2 0.752435 0.421354 0.820582
2 1 0.223407 0.343484 1.0074
13 2 0.22976 0.588541 0.170489
8 1 0.239988 0.982416 0.102019
9 1 0.688309 0.795921 0.286308
1 1 0.269997 0.821755 0.499705
17 3 0.772695 0.63084 0.437553
5 1 0.75506 0.51479 0.609196
12 1 0.270295 0.716654 0.789617
16 2 0.756062 0.905363 0.663542
20 3 0.233996 0.858218 0.941735
4 1 0.719007 0.693241 1.00784
ITEM: TIMESTEP
19500
ITEM: NUMBER OF ATOMS
20
ITEM: BOX BOUNDS xy xz yz pp pp pp
-1.6519424411787522e-02 4.6108600351815268e+00 -1.8062852368869781e-03
-2.8773283688994504e-02 9.7486517276471663e+00 -8.5310399341626897e-04
-3.7579750677398466e-02 1.6847579750677404e+01 -1.2155604186340012e-04
ITEM: ATOMS id type xs ys zs
18 3 0.721074 0.144965 0.0565396
7 1 0.239082 0.494367 0.39161
10 1 0.730562 0.298852 0.212455
14 2 0.266653 0.0943423 0.326419
3 1 0.773827 0.192238 0.489012
19 3 0.284778 0.34839 0.552416
11 1 0.27406 0.20342 0.721755
6 1 0.682263 0.00860082 0.893909
15 2 0.767495 0.424233 0.838513
2 1 0.223668 0.315897 0.999721
13 2 0.24753 0.575462 0.173498
8 1 0.193125 0.949403 0.101091
9 1 0.761808 0.819902 0.289041
1 1 0.285881 0.849153 0.517394
17 3 0.772437 0.679587 0.44254
5 1 0.777921 0.540198 0.602948
12 1 0.273208 0.68872 0.782252
16 2 0.783274 0.912873 0.674247
20 3 0.194808 0.817159 0.938611
4 1 0.745311 0.65305 1.00303
ITEM: TIMESTEP
20000
ITEM: NUMBER OF ATOMS
20
ITEM: BOX BOUNDS xy xz yz pp pp pp
-1.8154902879930684e-02 4.6122444002709893e+00 -1.9974869902068997e-03
-3.1515504705512225e-02 9.7515308604414095e+00 -9.1301561879379570e-04
-4.1248271047159495e-02 1.6851248271047218e+01 1.5355735827731680e-05
ITEM: ATOMS id type xs ys zs
18 3 0.823414 0.173877 0.0576148
7 1 0.233306 0.48396 0.402417
10 1 0.740381 0.302628 0.202127
14 2 0.237902 0.0908108 0.320165
3 1 0.708453 0.155715 0.491948
19 3 0.179277 0.338842 0.552504
11 1 0.262531 0.185494 0.699774
6 1 0.802652 0.0250906 0.899546
15 2 0.748471 0.379198 0.818714
2 1 0.300286 0.321133 0.990639
13 2 0.264706 0.596648 0.17778
8 1 0.345521 0.965688 0.111087
9 1 0.728789 0.791119 0.293029
1 1 0.161571 0.843086 0.509238
17 3 0.71008 0.685632 0.446782
5 1 0.712928 0.527197 0.607713
12 1 0.254656 0.676392 0.797463
16 2 0.764432 0.909576 0.675077
20 3 0.263777 0.840707 0.944309
4 1 0.783058 0.662212 1.00569
