ITEM: TIMESTEP
10500
ITEM: NUMBER OF ATOMS
20
ITEM: BOX BOUNDS xy xz yz pp pp pp
2.6506090004590560e-02 8.1804955035399054e+00 5.7537551857909096e-06
2.7977939988369609e-02 8.2270048542494578e+00 -4.1602107116016255e-06
1.7626711901657554e-02 1.1741373288098352e+01 -1.7205762142563017e-05
ITEM: ATOMS id type xs ys zs
9 1 0.310557 0.294201 0.0456159
20 3 0.512092 -0.000616519 0.00240671
14 2 0.0174368 0.00677704 0.238934
6 1 0.792748 0.193074 0.495274
7 1 0.292847 0.292912 0.504759
18 3 0.505317 -0.00442386 0.498922
4 1 0.0063113 0.468375 0.746
15 2 0.456467 0.543345 0.745945
3 1 0.470381 0.0178965 0.755706
12 1 0.813409 0.202422 0.987666
2 1 0.981339 0.524636 0.255505
1 1 0.5159 0.959976 0.248519
13 2 0.508604 0.526518 0.277488
10 1 0.201177 0.801236 0.50178
11 1 0.718649 0.710989 0.515523
19 3 0.998053 0.497299 0.494272
16 2 0.960079 0.958787 0.744113
5 1 0.709935 0.704787 0.97477
8 1 0.203411 0.795944 0.980529
17 3 1.01538 0.497813 0.995625
ITEM: TIMESTEP
11000
ITEM: NUMBER OF ATOMS
20
ITEM: BOX BOUNDS xy xz yz pp pp pp
2.6371363583385338e-02 8.1806680442027115e+00 2.8514821274461210e-05
2.7800764139898387e-02 8.2271287306596612e+00 1.0892964803015722e-05
1.7424783411684550e-02 1.1741575216588320e+01 -7.0505200448834604e-05
ITEM: ATOMS id type xs ys zs
9 1 0.298261 0.301665 0.0299612
20 3 0.497572 0.0117357 -0.00269508
14 2 0.0157657 0.0456792 0.2537
6 1 0.782871 0.216912 0.530675
7 1 0.272954 0.26211 0.478118
18 3 0.500299 -0.00135943 0.500407
4 1 0.0296861 0.475916 0.747249
15 2 0.502781 0.474356 0.748408
3 1 0.44674 0.0104628 0.745195
12 1 0.806345 0.204049 0.973335
2 1 0.952967 0.506169 0.242549
1 1 0.552244 0.984741 0.252852
13 2 0.494923 0.537636 0.245566
10 1 0.240858 0.765171 0.466559
11 1 0.715503 0.724123 0.5419
19 3 0.999559 0.501006 0.49897
16 2 0.996797 0.959346 0.745003
5 1 0.713653 0.718649 0.981365
8 1 0.191739 0.795396 1.025
17 3 0.994393 0.491096 1.00231
ITEM: TIMESTEP
11500
ITEM: NUMBER OF ATOMS
20
ITEM: BOX BOUNDS xy xz yz pp pp pp
2.6149153384647093e-02 8.1809636561821328e+00 7.9833288619201624e-05
2.7533711003950228e-02 8.2273630471486019e+00 3.2976278138893465e-05
1.7111594499183046e-02 1.1741888405500811e+01 -1.0324184744581129e-04
ITEM: ATOMS id type xs ys zs
9 1 0.279679 0.276283 0.0346302
20 3 0.506288 0.00676575 0.0051679
14 2 0.0188243 0.0493193 0.246109
6 1 0.806058 0.189608 0.522958
7 1 0.304013 0.292326 0.480503
18 3 0.501833 -0.0123025 0.497746
4 1 0.0203604 0.507074 0.754755
15 2 0.508085 0.444106 0.756554
3 1 0.437279 0.0142016 0.753223
12 1 0.799186 0.214376 0.960657
2 1 0.936498 0.497219 0.258333
1 1 0.56371 1.00803 0.249631
13 2 0.473727 0.545603 0.236785
10 1 0.199979 0.791981 0.452831
11 1 0.70832 0.705074 0.526889
19 3 1.00608 0.494237 0.509327
16 2 0.989992 0.956526 0.744269
5 1 0.702718 0.710345 0.976617
8 1 0.2113 0.802449 1.00927
17 3 1.00399 0.510685 1.00607
ITEM: TIMESTEP
12000
ITEM: NUMBER OF ATOMS
20
ITEM: BOX BOUNDS xy xz yz pp pp pp
2.5853763311042673e-02 8.1813501237594011e+00 1.5002482331654896e-04
2.7138730544990306e-02 8.2277157994183110e+00 5.3862247119204637e-05
1.6696711403445322e-02 1.1742303288596540e+01 -1.4547003670744961e-04
ITEM: ATOMS id type xs ys zs
9 1 0.268613 0.278899 0.0430611
20 3 0.50113 -0.008571 -0.00761801
14 2 0.0088119 0.0627972 0.250988
6 1 0.810271 0.182241 0.532968
7 1 0.291061 0.291019 0.481394
18 3 0.514685 -0.00342684 0.49869
4 1 0.043649 0.477737 0.744427
15 2 0.525043 0.454944 0.75626
3 1 0.439868 0.0094989 0.74174
12 1 0.783822 0.206016 0.965092
2 1 0.965209 0.516902 0.252915
1 1 0.547762 1.01224 0.246342
13 2 0.471844 0.558494 0.263914
10 1 0.202102 0.788596 0.470228
11 1 0.721288 0.712425 0.511252
19 3 0.998345 0.484811 0.496626
16 2 1.00196 0.969533 0.755087
5 1 0.695593 0.70257 0.974468
8 1 0.19575 0.801089 1.01337
17 3 0.994554 0.505522 1.00412
ITEM: TIMESTEP
12500
ITEM: NUMBER OF ATOMS
20
ITEM: BOX BOUNDS xy xz yz pp pp pp
2.5485378888412499e-02 8.1818165772890818e+00 2.4137016845627055e-04
2.6599575339491002e-02 8.2281944317566111e+00 6.0586009052583355e-05
1.6170023789529135e-02 1.1742829976210475e+01 -2.0599290387062540e-04
ITEM: ATOMS id type xs ys zs
9 1 0.280388 0.298296 0.0133507
20 3 0.48549 0.01434 -0.00714535
14 2 0.0226078 0.0337083 0.246451
6 1 0.797269 0.203935 0.541292
7 1 0.29833 0.261611 0.466702
18 3 0.507415 -0.0138047 0.499272
4 1 0.0337841 0.488328 0.751841
15 2 0.486372 0.474419 0.764914
3 1 0.427892 0.00407537 0.750944
12 1 0.794184 0.21489 0.982033
2 1 0.940626 0.514104 0.257
1 1 0.545156 1.02465 0.252677
13 2 0.485627 0.541955 0.240449
10 1 0.220251 0.786805 0.472856
11 1 0.716998 0.692709 0.525585
19 3 1.02557 0.486712 0.498898
16 2 0.999502 0.94776 0.742806
5 1 0.720144 0.72812 0.972532
8 1 0.204014 0.787367 1.02585
17 3 0.99356 0.512243 1.00753
ITEM: TIMESTEP
13000
ITEM: NUMBER OF ATOMS
20
ITEM: BOX BOUNDS xy xz yz pp pp pp
2.5036644018199872e-02 8.1823240070660503e+00 3.1644064066743233e-04
2.5937474395663726e-02 8.2288011031081947e+00 4.4210443580081424e-05
1.5554664315350658e-02 1.1743445335684653e+01 -2.6142249611674044e-04
ITEM: ATOMS id type xs ys zs
9 1 0.286162 0.301866 0.0234041
20 3 0.499948 0.0333698 0.00465358
14 2 0.0154435 0.0157469 0.243791
6 1 0.822049 0.168248 0.508831
7 1 0.305277 0.298931 0.488066
18 3 0.520432 -0.0103839 0.497405
4 1 0.0344282 0.49319 0.759254
15 2 0.50092 0.487268 0.749492
3 1 0.471124 -0.0155304 0.74082
12 1 0.783491 0.238757 0.95978
2 1 0.96177 0.485972 0.252577
1 1 0.523857 0.987781 0.250974
13 2 0.472939 0.556713 0.249114
10 1 0.201042 0.792364 0.491367
11 1 0.698395 0.658246 0.503465
19 3 1.00211 0.474713 0.507821
16 2 0.986459 0.97569 0.757698
5 1 0.712624 0.739858 0.984613
8 1 0.217934 0.79235 1.00898
17 3 0.986185 0.501932 1.00097
ITEM: TIMESTEP
13500
ITEM: NUMBER OF ATOMS
20
ITEM: BOX BOUNDS xy xz yz pp pp pp
2.4524186264061366e-02 8.1828951686766001e+00 4.0989763545869824e-04
2.5188365980097507e-02 8.2294962414166051e+00 9.4573051698656631e-06
1.4784389926183984e-02 1.1744215610073816e+01 -3.1539260328798901e-04
ITEM: ATOMS id type xs ys zs
14 2 0.955457 -0.0440538 0.251741
2 1 1.00711 0.422534 0.238623
13 2 0.462467 0.493983 0.259053
1 1 0.488284 0.051299 0.254171
6 1 0.811371 0.180663 0.509456
7 1 0.305923 0.291454 0.538035
18 3 0.491238 -0.014261 0.496022
15 2 0.538213 0.519439 0.762503
16 2 0.0391118 0.0101796 0.757422
12 1 0.789248 0.22261 0.965081
17 3 -0.00425122 0.518898 0.999539
9 1 0.295782 0.311427 0.969085
5 1 0.709883 0.728368 0.0409952
8 1 0.189891 0.820304 0.0200602
10 1 0.199226 0.805368 0.489687
11 1 0.707421 0.691553 0.476468
19 3 1.01368 0.482436 0.486737
4 1 -0.00218032 0.539203 0.739767
3 1 0.517959 0.964034 0.756887
20 3 0.494627 1.01496 0.998369
ITEM: TIMESTEP
14000
ITEM: NUMBER OF ATOMS
20
ITEM: BOX BOUNDS xy xz yz pp pp pp
2.3894651430845369e-02 8.1835977237203483e+00 5.2655316669954449e-04
2.4394807428610357e-02 8.2302473219169627e+00 -3.4178015516086283e-05
1.3848780874213412e-02 1.1745151219125784e+01 -3.5787065439322655e-04
ITEM: ATOMS id type xs ys zs
14 2 0.985412 0.01297 0.236994
2 1 1.00761 0.478826 0.244409
13 2 0.548744 0.475413 0.258915
1 1 0.510066 0.00796304 0.246096
6 1 0.80489 0.186803 0.50437
7 1 0.317233 0.288751 0.494479
18 3 0.499414 -0.0152508 0.506527
15 2 0.513291 0.464617 0.75024
16 2 0.00755323 0.0270523 0.749218
12 1 0.781083 0.223671 0.997543
17 3 -0.0095208 0.519109 0.98802
9 1 0.271599 0.305855 1.00636
5 1 0.696724 0.71795 0.007786
8 1 0.210634 0.794297 0.00819597
10 1 0.184728 0.797311 0.499798
11 1 0.707188 0.704874 0.504225
19 3 0.994804 0.493256 0.495366
4 1 -0.0127842 0.491434 0.749686
3 1 0.483087 0.995829 0.754006
20 3 0.494352 1.01839 1.00647
ITEM: TIMESTEP
14500
ITEM: NUMBER OF ATOMS
20
ITEM: BOX BOUNDS xy xz yz pp pp pp
2.3181088675751700e-02 8.1843418548388218e+00 6.1092746517868229e-04
2.3555434007971832e-02 8.2310619104783296e+00 -8.7983950620588419e-05
1.2717841936472967e-02 1.1746282158063510e+01 -3.8265551364158448e-04
ITEM: ATOMS id type xs ys zs
14 2 0.95783 -0.0636636 0.254795
2 1 1.08242 0.512088 0.246013
13 2 0.518537 0.435996 0.236712
1 1 0.413402 -0.00859539 0.261224
6 1 0.783895 0.210546 0.47566
7 1 0.276393 0.288293 0.526336
18 3 0.486093 -0.00469416 0.505497
15 2 0.507781 0.55372 0.737721
16 2 0.0207069 0.0515479 0.745817
12 1 0.802737 0.208586 1.03242
17 3 0.0166828 0.50319 0.995977
9 1 0.302759 0.301347 0.970246
5 1 0.690153 0.690271 0.0252999
8 1 0.219235 0.812406 -0.0341197
10 1 0.195904 0.790212 0.526722
11 1 0.688866 0.699295 0.463483
19 3 1.01272 0.50547 0.502661
4 1 -0.0565068 0.511489 0.747706
3 1 0.556714 0.998997 0.762744
20 3 0.498572 1.00477 1.01065
ITEM: TIMESTEP
15000
ITEM: NUMBER OF ATOMS
20
ITEM: BOX BOUNDS xy xz yz pp pp pp
2.2395235688241106e-02 8.1851494639100295e+00 6.9432703175454204e-04
2.2618070845062004e-02 8.2319879387176371e+00 -1.4962743350423833e-04
1.1481371129019488e-02 1.1747518628870948e+01 -3.9399043725898118e-04
ITEM: ATOMS id type xs ys zs
14 2 0.985574 -0.00955717 0.240909
2 1 1.0271 0.506877 0.24856
13 2 0.505314 0.491179 0.234017
1 1 0.442277 -0.0476334 0.243278
6 1 0.798607 0.186345 0.473522
7 1 0.32047 0.313728 0.498591
18 3 0.498978 -0.00250306 0.503054
15 2 0.502429 0.531782 0.767883
16 2 0.000128042 0.0262906 0.782894
12 1 0.754737 0.239229 1.03037
17 3 -0.00210313 0.493896 1.00053
9 1 0.270069 0.267291 0.990537
5 1 0.764406 0.744744 -0.0029153
8 1 0.264013 0.745873 -0.0178558
10 1 0.182785 0.822346 0.518325
11 1 0.689401 0.691517 0.490297
19 3 0.996543 0.486856 0.49391
4 1 -0.0121535 0.478777 0.750207
3 1 0.519879 1.02654 0.746069
20 3 0.5024 1.00545 0.997916
ITEM: TIMESTEP
15500
ITEM: NUMBER OF ATOMS
20
ITEM: BOX BOUNDS xy xz yz pp pp pp
2.1545323749232976e-02 8.1859866612831684e+00 7.4311716690128008e-04
2.1662220623266091e-02 8.2329825988087286e+00 -2.1113213453624163e-04
1.0136245079047458e-02 1.1748863754920894e+01 -3.5518056797338878e-04
ITEM: ATOMS id type xs ys zs
14 2 1.00948 -0.0422225 0.265208
2 1 0.997456 0.455164 0.254198
13 2 0.515808 0.475955 0.246683
1 1 0.474609 -0.00382198 0.245979
6 1 0.785875 0.222931 0.496118
7 1 0.274938 0.267897 0.497458
18 3 0.504428 0.00578926 0.492118
15 2 0.452534 0.510447 0.732821
16 2 0.0575211 0.048763 0.756497
12 1 0.797874 0.20159 1.00128
17 3 0.00570536 0.508933 1.00786
9 1 0.294873 0.298604 0.990267
5 1 0.686594 0.690255 0.00799865
8 1 0.197966 0.791498 0.000417835
10 1 0.217283 0.788123 0.518276
11 1 0.721857 0.716447 0.469941
19 3 0.994059 0.515972 0.507089
4 1 -0.0545522 0.520578 0.753329
3 1 0.519852 0.998796 0.74787
20 3 0.506212 0.994223 0.99875
ITEM: TIMESTEP
16000
ITEM: NUMBER OF ATOMS
20
ITEM: BOX BOUNDS xy xz yz pp pp pp
2.0622628825011622e-02 8.1868634251630059e+00 7.7876440638468788e-04
2.0614818808673198e-02 8.2340485461495589e+00 -2.9271041839727441e-04
8.6447591028113412e-03 1.1750355240897145e+01 -3.3663504172159027e-04
ITEM: ATOMS id type xs ys zs
14 2 1.01535 -0.0351803 0.25192
2 1 1.01113 0.511104 0.252738
13 2 0.505868 0.45661 0.247086
1 1 0.458805 -0.0345528 0.246742
6 1 0.804225 0.212954 0.47602
7 1 0.282591 0.305895 0.506494
18 3 0.506579 0.0110221 0.494184
15 2 0.48188 0.529569 0.732952
16 2 0.00516706 0.0497857 0.768037
12 1 0.792303 0.203315 1.03208
17 3 -0.0230965 0.486134 1.00332
9 1 0.289777 0.267349 0.985495
5 1 0.687233 0.700661 -0.0124129
8 1 0.208463 0.787788 -0.00417408
10 1 0.21878 0.802463 0.525945
11 1 0.711236 0.714967 0.489427
19 3 1.00129 0.514316 0.505161
4 1 -0.0102121 0.502553 0.753229
3 1 0.55313 1.0016 0.742731
20 3 0.506922 0.997372 0.999561
ITEM: TIMESTEP
16500
ITEM: NUMBER OF ATOMS
20
ITEM: BOX BOUNDS xy xz yz pp pp pp
1.9636372541873247e-02 8.1877965258157968e+00 8.1396570075051961e-04
1.9471356877957143e-02 8.2351784499279734e+00 -3.8106734312545059e-04
7.0328191798299409e-03 1.1751967180820142e+01 -3.5019319400568229e-04
ITEM: ATOMS id type xs ys zs
14 2 0.952542 -0.0552342 0.250566
2 1 1.02144 0.523038 0.24685
13 2 0.505275 0.478216 0.263888
1 1 0.454373 0.0252146 0.256645
6 1 0.787789 0.232423 0.467308
7 1 0.282784 0.296026 0.541644
18 3 0.514473 0.00366511 0.500246
15 2 0.483673 0.54919 0.751559
16 2 0.00565133 0.0352065 0.758158
12 1 0.802544 0.193617 1.01347
17 3 0.00720648 0.498531 0.990596
9 1 0.290524 0.277789 0.974839
5 1 0.717197 0.688657 0.0215832
8 1 0.207514 0.784002 -0.0209507
10 1 0.203534 0.798338 0.514869
11 1 0.717893 0.713432 0.493889
19 3 1.01536 0.500925 0.490298
4 1 -0.0384096 0.494556 0.74488
3 1 0.540414 1.0033 0.748801
20 3 0.502219 0.980183 1.00163
ITEM: TIMESTEP
17000
ITEM: NUMBER OF ATOMS
20
ITEM: BOX BOUNDS xy xz yz pp pp pp
1.8604346671014543e-02 8.1887900348631693e+00 8.5225059057687292e-04
1.8229530685428326e-02 8.2363950305537159e+00 -4.5786905645341829e-04
5.3433413491298801e-03 1.1753656658650874e+01 -3.7543876079303238e-04
ITEM: ATOMS id type xs ys zs
14 2 1.00785 -0.0362311 0.264502
2 1 1.03756 0.488815 0.250565
13 2 0.517649 0.466348 0.236875
1 1 0.451411 -0.0133604 0.251543
6 1 0.781905 0.204 0.476127
7 1 0.311457 0.302845 0.526042
18 3 0.500296 0.00872598 0.502861
15 2 0.50217 0.556081 0.754421
16 2 0.0151933 0.032515 0.732029
12 1 0.784134 0.200665 1.03467
17 3 0.00163413 0.485034 0.991103
9 1 0.304249 0.303072 0.978883
5 1 0.725717 0.723382 0.0296225
8 1 0.215008 0.77748 -0.049873
10 1 0.207292 0.794355 0.517414
11 1 0.70312 0.705088 0.493908
19 3 0.989788 0.49811 0.503292
4 1 -0.0482184 0.493041 0.744736
3 1 0.516265 1.03211 0.756834
20 3 0.484338 0.991456 1.00657
ITEM: TIMESTEP
17500
ITEM: NUMBER OF ATOMS
20
ITEM: BOX BOUNDS xy xz yz pp pp pp
1.7538277224619980e-02 8.1898096242946892e+00 8.7324527532475944e-04
1.6877672467950262e-02 8.2377130280639470e+00 -5.2534375606963729e-04
3.5847300800772620e-03 1.1755415269919903e+01 -4.0929946804828309e-04
ITEM: ATOMS id type xs ys zs
14 2 0.969461 -0.0574389 0.238054
2 1 1.05097 0.521551 0.24631
13 2 0.514631 0.469637 0.256112
1 1 0.458122 -0.0497913 0.2522
6 1 0.802186 0.20686 0.470354
7 1 0.299711 0.311711 0.524979
18 3 0.485876 0.00520472 0.49626
15 2 0.484934 0.553716 0.752945
16 2 -0.0413314 -0.00743741 0.757744
12 1 0.797069 0.218527 1.02726
17 3 0.0191104 0.495663 0.996103
9 1 0.315464 0.294941 0.989851
5 1 0.731194 0.725461 -0.00547509
8 1 0.215013 0.809374 -0.00761852
10 1 0.190903 0.797324 0.532612
11 1 0.701741 0.704642 0.485879
19 3 1.00825 0.501611 0.495547
4 1 -0.0516259 0.47739 0.744733
3 1 0.509697 1.0084 0.74942
20 3 0.525826 1.01422 1.00482
ITEM: TIMESTEP
18000
ITEM: NUMBER OF ATOMS
20
ITEM: BOX BOUNDS xy xz yz pp pp pp
1.6424286683024359e-02 8.1908894065496796e+00 8.9861071074570284e-04
1.5439800638332359e-02 8.2391011188183469e+00 -5.8491747811472881e-04
1.7407026671071304e-03 1.1757259297332888e+01 -4.5908054327447809e-04
ITEM: ATOMS id type xs ys zs
14 2 1.03703 0.0387134 0.245956
2 1 0.995861 0.52815 0.252987
13 2 0.531604 0.510119 0.266071
1 1 0.477813 -0.000885121 0.249957
6 1 0.78064 0.21001 0.477648
7 1 0.299865 0.305464 0.4835
18 3 0.487399 0.00331901 0.502082
15 2 0.481715 0.499816 0.732571
16 2 -0.0095841 0.00033461 0.754987
12 1 0.808137 0.196454 1.00174
17 3 0.0207418 0.498282 1.005
9 1 0.312216 0.295683 1.03486
5 1 0.693842 0.685091 -0.024118
8 1 0.20564 0.802379 -0.015058
10 1 0.195869 0.787999 0.503633
11 1 0.709156 0.70046 0.513369
19 3 0.987987 0.485817 0.497707
4 1 -0.00582656 0.448211 0.746623
3 1 0.448016 1.04085 0.755748
20 3 0.508163 0.980755 1.00296
ITEM: TIMESTEP
18500
ITEM: NUMBER OF ATOMS
20
ITEM: BOX BOUNDS xy xz yz pp pp pp
1.5242024818307101e-02 8.1920808130040950e+00 9.5902648323778809e-04
1.3962574688125610e-02 8.2405321944313545e+00 -6.3618866089824280e-04
-1.6761240294239284e-04 1.1759167612402937e+01 -5.0523088047575032e-04
ITEM: ATOMS id type xs ys zs
12 1 0.768627 0.236034 0.0128132
9 1 0.257399 0.25813 0.0464537
14 2 0.0354178 -0.0214545 0.238432
6 1 0.79622 0.213448 0.452481
7 1 0.29485 0.30544 0.477861
18 3 0.513874 0.0104645 0.496319
4 1 -0.0129937 0.460464 0.751785
3 1 0.501794 0.0557594 0.744718
20 3 0.50074 0.0132045 0.996768
17 3 1.00757 0.49633 1.00251
2 1 0.992116 0.536196 0.247272
1 1 0.524425 0.9713 0.245291
13 2 0.53394 0.459423 0.244534
10 1 0.192948 0.828754 0.497565
11 1 0.681904 0.696838 0.554144
19 3 0.998148 0.50822 0.498003
15 2 0.486644 0.491125 0.784408
16 2 0.947759 0.988565 0.745503
5 1 0.723022 0.723162 0.994605
8 1 0.221477 0.779322 0.96994
ITEM: TIMESTEP
19000
ITEM: NUMBER OF ATOMS
20
ITEM: BOX BOUNDS xy xz yz pp pp pp
1.3974073431125583e-02 8.1933605280127040e+00 1.0345871073335559e-03
1.2426461906158500e-02 8.2420156867048853e+00 -6.9998566357558985e-04
-2.1141835033064407e-03 1.1761114183503270e+01 -5.5785138889788638e-04
ITEM: ATOMS id type xs ys zs
12 1 0.783863 0.216742 -0.0316605
9 1 0.303622 0.29265 0.0351873
14 2 -0.00163197 0.0593641 0.23752
6 1 0.768295 0.222899 0.528487
7 1 0.286277 0.288401 0.47792
18 3 0.497494 -0.0146082 0.49798
4 1 0.05696 0.462391 0.756339
3 1 0.459377 -0.0116775 0.749559
20 3 0.49422 -0.00973594 0.99756
17 3 1.01251 0.491763 1.00425
2 1 0.936973 0.494756 0.24825
1 1 0.549274 1.02454 0.246852
13 2 0.482575 0.5661 0.247438
10 1 0.213201 0.78668 0.479083
11 1 0.720763 0.714508 0.534391
19 3 1.0041 0.50365 0.503131
15 2 0.51166 0.442842 0.746546
16 2 1.00293 0.98447 0.747342
5 1 0.698506 0.703339 0.983401
8 1 0.209065 0.790925 1.01992
ITEM: TIMESTEP
19500
ITEM: NUMBER OF ATOMS
20
ITEM: BOX BOUNDS xy xz yz pp pp pp
1.2661217468200717e-02 8.1946948331312086e+00 1.1288019538414538e-03
1.0838801860520881e-02 8.2435599851349846e+00 -7.7275135448830949e-04
-4.1004090643749214e-03 1.1763100409064302e+01 -6.0121300448037686e-04
ITEM: ATOMS id type xs ys zs
12 1 0.79864 0.186902 -0.0221889
9 1 0.301177 0.307358 -0.000358657
14 2 -0.0159423 0.0182882 0.258119
6 1 0.830888 0.198439 0.53105
7 1 0.281553 0.287627 0.48593
18 3 0.512612 0.0197508 0.497155
4 1 0.013016 0.510103 0.753771
3 1 0.485705 0.0150633 0.751567
20 3 0.51079 0.00474446 0.993772
17 3 0.989616 0.492521 1.00186
2 1 0.970947 0.484545 0.258011
1 1 0.517528 1.02095 0.245211
13 2 0.443212 0.527935 0.256866
10 1 0.209742 0.790081 0.491264
11 1 0.706544 0.712536 0.499132
19 3 0.998802 0.50311 0.505143
15 2 0.509894 0.453512 0.733152
16 2 1.03402 0.964619 0.75549
5 1 0.702196 0.700367 0.992816
8 1 0.199779 0.793889 1.01305
ITEM: TIMESTEP
20000
ITEM: NUMBER OF ATOMS
20
ITEM: BOX BOUNDS xy xz yz pp pp pp
1.1308250066215282e-02 8.1960750542050906e+00 1.2204329636361603e-03
9.2030893848779882e-03 8.2451405941962150e+00 -8.3712869238937839e-04
-6.1360298740723565e-03 1.1765136029874016e+01 -6.5631641884901742e-04
ITEM: ATOMS id type xs ys zs
14 2 0.988528 -0.00661541 0.25786
2 1 -0.0123528 0.481976 0.249176
13 2 0.454511 0.518412 0.243817
1 1 0.46424 0.0297018 0.246773
6 1 0.791764 0.198849 0.529974
7 1 0.282259 0.28999 0.536776
15 2 0.521827 0.529201 0.742997
16 2 0.0528864 0.0126735 0.743408
17 3 -0.00441511 0.491267 0.998117
12 1 0.802381 0.191778 0.968332
9 1 0.310157 0.296727 0.972599
5 1 0.710631 0.691592 0.0345837
8 1 0.216341 0.773345 0.0187278
10 1 0.22492 0.788598 0.485436
11 1 0.706035 0.700278 0.472657
19 3 -0.0042216 0.501277 0.505085
18 3 0.50823 0.997485 0.500926
4 1 -0.0112424 0.547421 0.753791
3 1 0.513123 0.957132 0.750272
20 3 0.489535 0.995626 0.996158
