  48  48   0   0
  0.2058025E+02  0.1459605E-08  0.8610559E-09  0.7862872E-09  0.5000000E-15
   1.0000000000000000E-004
  CAR 
 hex-FASnI3                              
      9.28238189    -20.25338628  301      1.91074642      1.00000000
    -20.253  0.0000E+00  0.0000E+00
    -20.155  0.0000E+00  0.0000E+00
    -20.056  0.0000E+00  0.0000E+00
    -19.958  0.0000E+00  0.0000E+00
    -19.860  0.0000E+00  0.0000E+00
    -19.761  0.0000E+00  0.0000E+00
    -19.663  0.0000E+00  0.0000E+00
    -19.564  0.0000E+00  0.0000E+00
    -19.466  0.0000E+00  0.0000E+00
    -19.367  0.0000E+00  0.0000E+00
    -19.269  0.0000E+00  0.0000E+00
    -19.170  0.2050E-14  0.2019E-15
    -19.072  0.5163E-07  0.5083E-08
    -18.974  0.8591E-03  0.8458E-04
    -18.875  0.3932E-01  0.3956E-02
    -18.777  0.4037E-01  0.7931E-02
    -18.678  0.7042E-03  0.8000E-02
    -18.580  0.2707E-07  0.8000E-02
    -18.481  0.7217E-15  0.8000E-02
    -18.383  0.0000E+00  0.8000E-02
    -18.284  0.0000E+00  0.8000E-02
    -18.186  0.0000E+00  0.8000E-02
    -18.087  0.0000E+00  0.8000E-02
    -17.989  0.0000E+00  0.8000E-02
    -17.891  0.0000E+00  0.8000E-02
    -17.792  0.0000E+00  0.8000E-02
    -17.694  0.0000E+00  0.8000E-02
    -17.595  0.0000E+00  0.8000E-02
    -17.497  0.0000E+00  0.8000E-02
    -17.398  0.0000E+00  0.8000E-02
    -17.300  0.0000E+00  0.8000E-02
    -17.201  0.0000E+00  0.8000E-02
    -17.103  0.0000E+00  0.8000E-02
    -17.004  0.0000E+00  0.8000E-02
    -16.906  0.1076E-09  0.8000E-02
    -16.808  0.3427E-04  0.8003E-02
    -16.709  0.1219E-01  0.9203E-02
    -16.611  0.5687E-01  0.1480E-01
    -16.512  0.1214E-01  0.1600E-01
    -16.414  0.3005E-04  0.1600E-01
    -16.315  0.8370E-10  0.1600E-01
    -16.217  0.0000E+00  0.1600E-01
    -16.118  0.0000E+00  0.1600E-01
    -16.020  0.0000E+00  0.1600E-01
    -15.921  0.0000E+00  0.1600E-01
    -15.823  0.0000E+00  0.1600E-01
    -15.725  0.0000E+00  0.1600E-01
    -15.626  0.0000E+00  0.1600E-01
    -15.528  0.0000E+00  0.1600E-01
    -15.429  0.0000E+00  0.1600E-01
    -15.331  0.0000E+00  0.1600E-01
    -15.232  0.0000E+00  0.1600E-01
    -15.134  0.0000E+00  0.1600E-01
    -15.035  0.0000E+00  0.1600E-01
    -14.937  0.0000E+00  0.1600E-01
    -14.838  0.0000E+00  0.1600E-01
    -14.740  0.0000E+00  0.1600E-01
    -14.642  0.0000E+00  0.1600E-01
    -14.543  0.0000E+00  0.1600E-01
    -14.445  0.0000E+00  0.1600E-01
    -14.346  0.0000E+00  0.1600E-01
    -14.248  0.0000E+00  0.1600E-01
    -14.149  0.0000E+00  0.1600E-01
    -14.051  0.0000E+00  0.1600E-01
    -13.952  0.0000E+00  0.1600E-01
    -13.854  0.0000E+00  0.1600E-01
    -13.756  0.0000E+00  0.1600E-01
    -13.657  0.0000E+00  0.1600E-01
    -13.559  0.0000E+00  0.1600E-01
    -13.460  0.0000E+00  0.1600E-01
    -13.362  0.0000E+00  0.1600E-01
    -13.263  0.0000E+00  0.1600E-01
    -13.165  0.0000E+00  0.1600E-01
    -13.066  0.0000E+00  0.1600E-01
    -12.968  0.0000E+00  0.1600E-01
    -12.869  0.0000E+00  0.1600E-01
    -12.771  0.0000E+00  0.1600E-01
    -12.673  0.0000E+00  0.1600E-01
    -12.574  0.0000E+00  0.1600E-01
    -12.476  0.0000E+00  0.1600E-01
    -12.377  0.0000E+00  0.1600E-01
    -12.279  0.0000E+00  0.1600E-01
    -12.180  0.0000E+00  0.1600E-01
    -12.082  0.0000E+00  0.1600E-01
    -11.983  0.0000E+00  0.1600E-01
    -11.885  0.0000E+00  0.1600E-01
    -11.786  0.0000E+00  0.1600E-01
    -11.688  0.0000E+00  0.1600E-01
    -11.590  0.0000E+00  0.1600E-01
    -11.491  0.0000E+00  0.1600E-01
    -11.393  0.0000E+00  0.1600E-01
    -11.294  0.0000E+00  0.1600E-01
    -11.196  0.0000E+00  0.1600E-01
    -11.097  0.1645E-14  0.1600E-01
    -10.999  0.2703E-07  0.1600E-01
    -10.900  0.3319E-03  0.1603E-01
    -10.802  0.1406E-01  0.1742E-01
    -10.703  0.4341E-01  0.2169E-01
    -10.605  0.2346E-01  0.2400E-01
    -10.507  0.1739E-01  0.2571E-01
    -10.408  0.2943E-01  0.2861E-01
    -10.310  0.2306E-01  0.3088E-01
    -10.211  0.3837E-01  0.3466E-01
    -10.113  0.6245E-01  0.4081E-01
    -10.014  0.6074E-01  0.4679E-01
     -9.916  0.1228E-01  0.4799E-01
     -9.817  0.5368E-04  0.4800E-01
     -9.719  0.4800E-09  0.4800E-01
     -9.621  0.2882E-17  0.4800E-01
     -9.522  0.0000E+00  0.4800E-01
     -9.424  0.0000E+00  0.4800E-01
     -9.325  0.0000E+00  0.4800E-01
     -9.227  0.0000E+00  0.4800E-01
     -9.128  0.0000E+00  0.4800E-01
     -9.030  0.1105E-11  0.4800E-01
     -8.931  0.2014E-05  0.4800E-01
     -8.833  0.4098E-02  0.4840E-01
     -8.734  0.5232E-01  0.5355E-01
     -8.636  0.2463E-01  0.5598E-01
     -8.538  0.2123E-03  0.5600E-01
     -8.439  0.3540E-08  0.5600E-01
     -8.341  0.1730E-09  0.5600E-01
     -8.242  0.4475E-04  0.5600E-01
     -8.144  0.1529E-01  0.5751E-01
     -8.045  0.5542E-01  0.6297E-01
     -7.947  0.1048E-01  0.6400E-01
     -7.848  0.3040E-04  0.6400E-01
     -7.750  0.9374E-10  0.6400E-01
     -7.651  0.0000E+00  0.6400E-01
     -7.553  0.0000E+00  0.6400E-01
     -7.455  0.0000E+00  0.6400E-01
     -7.356  0.0000E+00  0.6400E-01
     -7.258  0.0000E+00  0.6400E-01
     -7.159  0.0000E+00  0.6400E-01
     -7.061  0.0000E+00  0.6400E-01
     -6.962  0.0000E+00  0.6400E-01
     -6.864  0.0000E+00  0.6400E-01
     -6.765  0.3258E-17  0.6400E-01
     -6.667  0.7227E-09  0.6400E-01
     -6.568  0.9221E-04  0.6401E-01
     -6.470  0.1823E-01  0.6580E-01
     -6.372  0.5668E-01  0.7138E-01
     -6.273  0.6249E-02  0.7200E-01
     -6.175  0.4137E-05  0.7200E-01
     -6.076  0.2502E-11  0.7200E-01
     -5.978  0.0000E+00  0.7200E-01
     -5.879  0.0000E+00  0.7200E-01
     -5.781  0.0000E+00  0.7200E-01
     -5.682  0.0000E+00  0.7200E-01
     -5.584  0.0000E+00  0.7200E-01
     -5.486  0.0000E+00  0.7200E-01
     -5.387  0.3759E-18  0.7200E-01
     -5.289  0.7082E-10  0.7200E-01
     -5.190  0.7272E-05  0.7200E-01
     -5.092  0.1895E-02  0.7219E-01
     -4.993  0.2939E-01  0.7508E-01
     -4.895  0.5478E-01  0.8047E-01
     -4.796  0.4929E-01  0.8533E-01
     -4.698  0.2650E-01  0.8794E-01
     -4.599  0.6548E-03  0.8800E-01
     -4.501  0.8638E-04  0.8801E-01
     -4.403  0.1645E-01  0.8963E-01
     -4.304  0.5878E-01  0.9542E-01
     -4.206  0.5935E-02  0.9600E-01
     -4.107  0.2140E-05  0.9600E-01
     -4.009  0.6912E-12  0.9600E-01
     -3.910  0.0000E+00  0.9600E-01
     -3.812  0.0000E+00  0.9600E-01
     -3.713  0.0000E+00  0.9600E-01
     -3.615  0.0000E+00  0.9600E-01
     -3.516  0.0000E+00  0.9600E-01
     -3.418  0.0000E+00  0.9600E-01
     -3.320  0.0000E+00  0.9600E-01
     -3.221  0.0000E+00  0.9600E-01
     -3.123  0.0000E+00  0.9600E-01
     -3.024  0.0000E+00  0.9600E-01
     -2.926  0.0000E+00  0.9600E-01
     -2.827  0.0000E+00  0.9600E-01
     -2.729  0.0000E+00  0.9600E-01
     -2.630  0.0000E+00  0.9600E-01
     -2.532  0.0000E+00  0.9600E-01
     -2.433  0.1108E-12  0.9600E-01
     -2.335  0.1943E-06  0.9600E-01
     -2.237  0.2406E-03  0.9602E-01
     -2.138  0.8789E-03  0.9611E-01
     -2.040  0.2230E-02  0.9633E-01
     -1.941  0.4294E-02  0.9675E-01
     -1.843  0.2944E-02  0.9704E-01
     -1.744  0.6119E-02  0.9764E-01
     -1.646  0.1144E-01  0.9877E-01
     -1.547  0.8214E-02  0.9958E-01
     -1.449  0.1577E-01  0.1011E+00
     -1.350  0.3464E-01  0.1045E+00
     -1.252  0.4221E-01  0.1087E+00
     -1.154  0.4614E-01  0.1132E+00
     -1.055  0.3899E-01  0.1171E+00
     -0.957  0.3532E-01  0.1206E+00
     -0.858  0.2461E-01  0.1230E+00
     -0.760  0.1134E-01  0.1241E+00
     -0.661  0.1493E-01  0.1256E+00
     -0.563  0.1755E-01  0.1273E+00
     -0.464  0.1053E-01  0.1283E+00
     -0.366  0.2218E-01  0.1305E+00
     -0.268  0.3028E-01  0.1335E+00
     -0.169  0.2289E-01  0.1358E+00
     -0.071  0.3437E-01  0.1391E+00
      0.028  0.4014E-01  0.1431E+00
      0.126  0.5195E-01  0.1482E+00
      0.225  0.4635E-01  0.1528E+00
      0.323  0.3565E-01  0.1563E+00
      0.422  0.3603E-01  0.1598E+00
      0.520  0.3708E-01  0.1635E+00
      0.619  0.3026E-01  0.1665E+00
      0.717  0.1915E-01  0.1683E+00
      0.815  0.1077E-01  0.1694E+00
      0.914  0.1545E-01  0.1709E+00
      1.012  0.1124E-01  0.1720E+00
      1.111  0.3111E-02  0.1723E+00
      1.209  0.2852E-02  0.1726E+00
      1.308  0.1092E-01  0.1737E+00
      1.406  0.8561E-02  0.1745E+00
      1.505  0.9422E-02  0.1755E+00
      1.603  0.2702E-02  0.1757E+00
      1.702  0.2617E-02  0.1760E+00
      1.800  0.1755E-03  0.1760E+00
      1.898  0.2662E-07  0.1760E+00
      1.997  0.2628E-14  0.1760E+00
      2.095  0.0000E+00  0.1760E+00
      2.194  0.0000E+00  0.1760E+00
      2.292  0.0000E+00  0.1760E+00
      2.391  0.0000E+00  0.1760E+00
      2.489  0.0000E+00  0.1760E+00
      2.588  0.0000E+00  0.1760E+00
      2.686  0.0000E+00  0.1760E+00
      2.785  0.0000E+00  0.1760E+00
      2.883  0.0000E+00  0.1760E+00
      2.981  0.0000E+00  0.1760E+00
      3.080  0.0000E+00  0.1760E+00
      3.178  0.0000E+00  0.1760E+00
      3.277  0.0000E+00  0.1760E+00
      3.375  0.0000E+00  0.1760E+00
      3.474  0.0000E+00  0.1760E+00
      3.572  0.3872E-11  0.1760E+00
      3.671  0.1476E-05  0.1760E+00
      3.769  0.4704E-03  0.1760E+00
      3.867  0.1864E-02  0.1762E+00
      3.966  0.1192E-02  0.1763E+00
      4.064  0.6019E-02  0.1769E+00
      4.163  0.2502E-01  0.1794E+00
      4.261  0.3201E-01  0.1826E+00
      4.360  0.4050E-01  0.1865E+00
      4.458  0.3825E-01  0.1903E+00
      4.557  0.3721E-01  0.1940E+00
      4.655  0.3538E-01  0.1975E+00
      4.754  0.3826E-01  0.2012E+00
      4.852  0.2819E-01  0.2040E+00
      4.950  0.2157E-01  0.2061E+00
      5.049  0.1401E-01  0.2075E+00
      5.147  0.4959E-02  0.2080E+00
      5.246  0.1163E-03  0.2080E+00
      5.344  0.1431E-07  0.2080E+00
      5.443  0.7347E-04  0.2080E+00
      5.541  0.9402E-03  0.2081E+00
      5.640  0.1194E-03  0.2081E+00
      5.738  0.1408E-02  0.2083E+00
      5.837  0.3343E-02  0.2086E+00
      5.935  0.2015E-02  0.2088E+00
      6.033  0.3265E-02  0.2091E+00
      6.132  0.8371E-02  0.2099E+00
      6.230  0.8525E-02  0.2108E+00
      6.329  0.7673E-02  0.2115E+00
      6.427  0.1275E-01  0.2128E+00
      6.526  0.1210E-01  0.2140E+00
      6.624  0.8873E-02  0.2148E+00
      6.723  0.1364E-01  0.2162E+00
      6.821  0.1831E-01  0.2180E+00
      6.920  0.1898E-01  0.2199E+00
      7.018  0.1974E-01  0.2218E+00
      7.116  0.2368E-01  0.2241E+00
      7.215  0.2900E-01  0.2270E+00
      7.313  0.2629E-01  0.2296E+00
      7.412  0.2672E-01  0.2322E+00
      7.510  0.2087E-01  0.2343E+00
      7.609  0.1770E-01  0.2360E+00
      7.707  0.2023E-01  0.2380E+00
      7.806  0.1135E-01  0.2391E+00
      7.904  0.7067E-02  0.2398E+00
      8.002  0.1909E-02  0.2400E+00
      8.101  0.8620E-04  0.2400E+00
      8.199  0.5864E-08  0.2400E+00
      8.298  0.2386E-15  0.2400E+00
      8.396  0.0000E+00  0.2400E+00
      8.495  0.0000E+00  0.2400E+00
      8.593  0.0000E+00  0.2400E+00
      8.692  0.0000E+00  0.2400E+00
      8.790  0.0000E+00  0.2400E+00
      8.889  0.0000E+00  0.2400E+00
      8.987  0.0000E+00  0.2400E+00
      9.085  0.0000E+00  0.2400E+00
      9.184  0.0000E+00  0.2400E+00
      9.282  0.0000E+00  0.2400E+00
