       N       E                     dE             d eps       ncg     rms          ort
DAV:   1     0.142388399992E+04    0.14239E+04   -0.10783E+05  1200   0.210E+03
DAV:   2     0.181482031676E+02   -0.14057E+04   -0.13418E+04  1200   0.281E+02
DAV:   3    -0.178197083629E+03   -0.19635E+03   -0.19451E+03  1200   0.127E+02
DAV:   4    -0.184365212433E+03   -0.61681E+01   -0.61264E+01  1200   0.234E+01
DAV:   5    -0.184543013286E+03   -0.17780E+00   -0.17768E+00  1200   0.397E+00
SDA:   6    -0.155470962554E+03    0.29072E+02   -0.17768E+00  1200   0.869E+02 0.000E+00
CGA:   7    -0.169491450993E+03   -0.14020E+02   -0.13971E+02  1200   0.499E+01 0.273E-01
CGA:   8    -0.171046007469E+03   -0.15546E+01   -0.15505E+01  1200   0.148E+01 0.203E-01
CGA:   9    -0.171518101599E+03   -0.47209E+00   -0.47274E+00  1200   0.426E+00-0.480E-02
CGA:  10    -0.171656683168E+03   -0.13858E+00   -0.13883E+00  1200   0.120E+00-0.192E-02
CGA:  11    -0.171700726703E+03   -0.44044E-01   -0.44153E-01  1200   0.310E-01-0.714E-03
CGA:  12    -0.171710965935E+03   -0.10239E-01   -0.10245E-01  1200   0.674E-02-0.338E-04
CGA:  13    -0.171713521726E+03   -0.25558E-02   -0.25536E-02  1200   0.154E-02 0.156E-04
CGA:  14    -0.171714093008E+03   -0.57128E-03   -0.56972E-03  1200   0.327E-03 0.119E-04
CGA:  15    -0.171714223042E+03   -0.13003E-03   -0.12917E-03  1200   0.796E-04 0.579E-05
CGA:  16    -0.171714254720E+03   -0.31678E-04   -0.31516E-04  1200   0.227E-04 0.116E-05
CGA:  17    -0.171714263188E+03   -0.84685E-05   -0.84300E-05  1200   0.728E-05 0.352E-06
CGA:  18    -0.171714265966E+03   -0.27774E-05   -0.27310E-05  1200   0.218E-05 0.434E-06
   1 F= -.17171427E+03 E0= -.17171427E+03  d E =-.171714E+03
       N       E                     dE             d eps       ncg     rms          ort
SDA:   1    -0.171710914595E+03    0.33486E-02    0.00000E+00  1200   0.736E-02 0.000E+00
CGA:   2    -0.171713340477E+03   -0.24259E-02   -0.24259E-02  1200   0.218E-02-0.103E-05
CGA:   3    -0.171713944085E+03   -0.60361E-03   -0.60361E-03  1200   0.349E-03-0.163E-05
CGA:   4    -0.171714036701E+03   -0.92617E-04   -0.92603E-04  1200   0.595E-04-0.107E-05
CGA:   5    -0.171714054273E+03   -0.17572E-04   -0.17575E-04  1200   0.122E-04-0.139E-06
CGA:   6    -0.171714058653E+03   -0.43801E-05   -0.44015E-05  1200   0.364E-05-0.257E-06
CGA:   7    -0.171714060086E+03   -0.14323E-05   -0.14505E-05  1200   0.124E-05-0.146E-06
CGA:   8    -0.171714060503E+03   -0.41692E-06   -0.41913E-06  1200   0.375E-06-0.346E-07
   2 F= -.17171406E+03 E0= -.17171406E+03  d E =0.205463E-03
       N       E                     dE             d eps       ncg     rms          ort
SDA:   1    -0.171712479525E+03    0.15806E-02    0.00000E+00  1200   0.424E-02 0.000E+00
CGA:   2    -0.171713876591E+03   -0.13971E-02   -0.13970E-02  1200   0.126E-02 0.947E-06
CGA:   3    -0.171714224146E+03   -0.34756E-03   -0.34758E-03  1200   0.200E-03 0.117E-05
CGA:   4    -0.171714277071E+03   -0.52925E-04   -0.52947E-04  1200   0.339E-04 0.777E-06
CGA:   5    -0.171714287138E+03   -0.10068E-04   -0.10067E-04  1200   0.690E-05 0.120E-06
CGA:   6    -0.171714289538E+03   -0.23998E-05   -0.23889E-05  1200   0.188E-05 0.205E-06
CGA:   7    -0.171714290293E+03   -0.75442E-06   -0.74403E-06  1200   0.578E-06 0.117E-06
CGA:   8    -0.171714290513E+03   -0.21994E-06   -0.21803E-06  1200   0.171E-06 0.339E-07
   3 F= -.17171429E+03 E0= -.17171429E+03  d E =-.245468E-04
