 vasp.6.3.1 04May22 (build May 25 2022 13:42:54) complex                         
 executed on        HPECrayEX_GCC date 2022.09.20  09:44:05
 running   64 mpi-ranks, with    1 threads/rank
 distrk:  each k-point on   32 cores,    2 groups
 distr:  one band on NCORE=   4 cores,    8 groups


--------------------------------------------------------------------------------------------------------


 INCAR:
   SYSTEM = hex-FASnI3
   ISMEAR = 0
   SIGMA = 0.05
   EDIFF = 5E-6
   EDIFFG = -0.01
   ALGO = ALL
   ISTART = 0
   IBRION = 2
   ISIF = 3
   NSW = 1000
   ISYM = 0
   GGA = MK
   PARAM1 = 0.1234
   PARAM2 = 1.0
   LUSE_VDW = .TRUE.
   AGGAC = 0.0
   ENCUT = 1000
   PREC = Accurate
   LASPH = .TRUE.
   LREAL = .FALSE.
   ISPIN = 1
   NELM = 200
   NELMIN = 8
   NCORE = 4
   KPAR = 2
   LWAVE = .FALSE.
   LCHARG = .FALSE.

 POTCAR:    PAW_PBE C 08Apr2002                   
 POTCAR:    PAW_PBE H 15Jun2001                   
 POTCAR:    PAW_PBE I 08Apr2002                   
 POTCAR:    PAW_PBE N 08Apr2002                   
 POTCAR:    PAW_PBE Sn 08Apr2002                  
 -----------------------------------------------------------------------------
|                                                                             |
|               ----> ADVICE to this user running VASP <----                  |
|                                                                             |
|     You have switched on vdW-DFT.                                           |
|     This routine was written and supplied by Jiri Klimes. We recommend      |
|     that you carefully read and cite the following publications:            |
|       J. Klimes, D.R. Bowler, A. Michelides                                 |
|          J. Phys.: Cond Matt. 22 022201 (2010)                              |
|       J. Klimes, D.R. Bowler, A. Michelides                                 |
|          Phys. Rev. B. 83, 195131 (2011)                                    |
|     and references therein.                                                 |
|                                                                             |
 -----------------------------------------------------------------------------

 POTCAR:    PAW_PBE C 08Apr2002                   
   SHA256 =  253f7b50bb8d59471dbedb8285d89021f4a42ed1a2c5d38a03a736e69125dd95 C/POTCAR              
   COPYR  = (c) Copyright 08Apr2002 Georg Kresse                                                    
   COPYR  = This file is part of the software VASP. Any use, copying, and all other rights are regul
   COPYR  = If you do not have a valid VASP license, you may not use, copy or distribute this file. 
   VRHFIN =C: s2p2                                                                                  
   LEXCH  = PE                                                                                      
   EATOM  =   147.1560 eV,   10.8157 Ry                                                             
                                                                                                    
   TITEL  = PAW_PBE C 08Apr2002                                                                     
   LULTRA =        F    use ultrasoft PP ?                                                          
   IUNSCR =        1    unscreen: 0-lin 1-nonlin 2-no                                               
   RPACOR =    1.200    partial core radius                                                         
   POMASS =   12.011; ZVAL   =    4.000    mass and valenz                                          
   RCORE  =    1.500    outmost cutoff radius                                                       
   RWIGS  =    1.630; RWIGS  =    0.863    wigner-seitz radius (au A)                               
   ENMAX  =  400.000; ENMIN  =  300.000 eV                                                          
   ICORE  =        2    local potential                                                             
   LCOR   =        T    correct aug charges                                                         
   LPAW   =        T    paw PP                                                                      
   EAUG   =  644.873                                                                                
   DEXC   =    0.000                                                                                
   RMAX   =    1.529    core radius for proj-oper                                                   
   RAUG   =    1.300    factor for augmentation sphere                                              
   RDEP   =    1.501    radius for radial grids                                                     
   RDEPT  =    1.300    core radius for aug-charge                                                  
                                                                                                    
   Atomic configuration                                                                             
    4 entries                                                                                       
     n  l   j            E        occ.                                                              
     1  0  0.50      -273.3789   2.0000                                                             
     2  0  0.50       -13.7508   2.0000                                                             
     2  1  0.50        -5.2854   2.0000                                                             
     3  2  1.50        -5.4423   0.0000                                                             
   Description                                                                                      
     l       E           TYP  RCUT    TYP  RCUT                                                     
     0    -13.7508458     23  1.200                                                                 
     0     -8.2022199     23  1.200                                                                 
     1     -5.2854383     23  1.500                                                                 
     1     34.0145650     23  1.500                                                                 
     2     -5.4423304      7  1.500                                                                 
  local pseudopotential read in
  partial core-charges read in
  partial kinetic energy density read in
  atomic valenz-charges read in
  non local Contribution for L=           0  read in
    real space projection operators read in
  non local Contribution for L=           0  read in
    real space projection operators read in
  non local Contribution for L=           1  read in
    real space projection operators read in
  non local Contribution for L=           1  read in
    real space projection operators read in
    PAW grid and wavefunctions read in

   number of l-projection  operators is LMAX  =           4
   number of lm-projection operators is LMMAX =           8

 POTCAR:    PAW_PBE H 15Jun2001                   
   SHA256 =  030f79b5d3ab3cf0e668861823c8fb652ff669f3e15e46930bd03bfd63a607b6 H/POTCAR              
   COPYR  = (c) Copyright 15Jun2001 Georg Kresse                                                    
   COPYR  = This file is part of the software VASP. Any use, copying, and all other rights are regul
   COPYR  = If you do not have a valid VASP license, you may not use, copy or distribute this file. 
   VRHFIN =H: ultrasoft test                                                                        
   LEXCH  = PE                                                                                      
   EATOM  =    12.4884 eV,    0.9179 Ry                                                             
                                                                                                    
   TITEL  = PAW_PBE H 15Jun2001                                                                     
   LULTRA =        F    use ultrasoft PP ?                                                          
   IUNSCR =        0    unscreen: 0-lin 1-nonlin 2-no                                               
   RPACOR =    0.000    partial core radius                                                         
   POMASS =    1.000; ZVAL   =    1.000    mass and valenz                                          
   RCORE  =    1.100    outmost cutoff radius                                                       
   RWIGS  =    0.700; RWIGS  =    0.370    wigner-seitz radius (au A)                               
   ENMAX  =  250.000; ENMIN  =  200.000 eV                                                          
   RCLOC  =    0.701    cutoff for local pot                                                        
   LCOR   =        T    correct aug charges                                                         
   LPAW   =        T    paw PP                                                                      
   EAUG   =  400.000                                                                                
   RMAX   =    1.123    core radius for proj-oper                                                   
   RAUG   =    1.200    factor for augmentation sphere                                              
   RDEP   =    1.112    radius for radial grids                                                     
   RDEPT  =    0.926    core radius for aug-charge                                                  
                                                                                                    
   Atomic configuration                                                                             
    2 entries                                                                                       
     n  l   j            E        occ.                                                              
     1  0  0.50        -6.4927   1.0000                                                             
     2  1  0.50        -3.4015   0.0000                                                             
   Description                                                                                      
     l       E           TYP  RCUT    TYP  RCUT                                                     
     0     -6.4927494     23  1.100                                                                 
     0      6.8029130     23  1.100                                                                 
     1     -4.0817478     23  1.100                                                                 
  local pseudopotential read in
  atomic valenz-charges read in
  non local Contribution for L=           0  read in
    real space projection operators read in
  non local Contribution for L=           0  read in
    real space projection operators read in
  non local Contribution for L=           1  read in
    real space projection operators read in
    PAW grid and wavefunctions read in

   number of l-projection  operators is LMAX  =           3
   number of lm-projection operators is LMMAX =           5

 POTCAR:    PAW_PBE I 08Apr2002                   
   SHA256 =  e40f3f59b681c1fc3e3091736183c4589116986673d2b852a5012aec72758799 I/POTCAR              
   COPYR  = (c) Copyright 08Apr2002 Georg Kresse                                                    
   COPYR  = This file is part of the software VASP. Any use, copying, and all other rights are regul
   COPYR  = If you do not have a valid VASP license, you may not use, copy or distribute this file. 
   VRHFIN =I : s2p5                                                                                 
   LEXCH  = PE                                                                                      
   EATOM  =   315.8678 eV,   23.2156 Ry                                                             
                                                                                                    
   TITEL  = PAW_PBE I 08Apr2002                                                                     
   LULTRA =        F    use ultrasoft PP ?                                                          
   IUNSCR =        1    unscreen: 0-lin 1-nonlin 2-no                                               
   RPACOR =    2.200    partial core radius                                                         
   POMASS =  126.904; ZVAL   =    7.000    mass and valenz                                          
   RCORE  =    2.300    outmost cutoff radius                                                       
   RWIGS  =    2.810; RWIGS  =    1.487    wigner-seitz radius (au A)                               
   ENMAX  =  175.647; ENMIN  =  131.735 eV                                                          
   ICORE  =        3    local potential                                                             
   LCOR   =        T    correct aug charges                                                         
   LPAW   =        T    paw PP                                                                      
   EAUG   =  370.139                                                                                
   DEXC   =    0.000                                                                                
   RMAX   =    2.359    core radius for proj-oper                                                   
   RAUG   =    1.300    factor for augmentation sphere                                              
   RDEP   =    2.392    radius for radial grids                                                     
   RDEPT  =    2.170    core radius for aug-charge                                                  
                                                                                                    
   Atomic configuration                                                                             
   13 entries                                                                                       
     n  l   j            E        occ.                                                              
     1  0  0.50    -32976.3739   2.0000                                                             
     2  0  0.50     -5094.5933   2.0000                                                             
     2  1  1.50     -4572.0131   6.0000                                                             
     3  0  0.50     -1028.2813   2.0000                                                             
     3  1  1.50      -859.0250   6.0000                                                             
     3  2  2.50      -605.7620  10.0000                                                             
     4  0  0.50      -180.5540   2.0000                                                             
     4  1  1.50      -127.5306   6.0000                                                             
     4  2  2.50       -50.2720  10.0000                                                             
     5  0  0.50       -17.4058   2.0000                                                             
     5  1  0.50        -7.0851   5.0000                                                             
     5  2  1.50        -7.0750   0.0000                                                             
     4  3  2.50        -7.0750   0.0000                                                             
   Description                                                                                      
     l       E           TYP  RCUT    TYP  RCUT                                                     
     0    -17.4058016     23  2.300                                                                 
     0    -18.7663842     23  2.300                                                                 
     1     -7.0850686     23  2.300                                                                 
     1     -4.2150896     23  2.300                                                                 
     2     -7.0750295     23  2.300                                                                 
     3     -1.3605826     23  2.300                                                                 
  local pseudopotential read in
  partial core-charges read in
  partial kinetic energy density read in
  atomic valenz-charges read in
  non local Contribution for L=           0  read in
    real space projection operators read in
  non local Contribution for L=           0  read in
    real space projection operators read in
  non local Contribution for L=           1  read in
    real space projection operators read in
  non local Contribution for L=           1  read in
    real space projection operators read in
  non local Contribution for L=           2  read in
    real space projection operators read in
    PAW grid and wavefunctions read in

   number of l-projection  operators is LMAX  =           5
   number of lm-projection operators is LMMAX =          13

 POTCAR:    PAW_PBE N 08Apr2002                   
   SHA256 =  e053789ff3a61a86a1b75d8a110fcc91f86041011e7b0817c7c99e4e8a6349d7 N/POTCAR              
   COPYR  = (c) Copyright 08Apr2002 Georg Kresse                                                    
   COPYR  = This file is part of the software VASP. Any use, copying, and all other rights are regul
   COPYR  = If you do not have a valid VASP license, you may not use, copy or distribute this file. 
   VRHFIN =N: s2p3                                                                                  
   LEXCH  = PE                                                                                      
   EATOM  =   264.5486 eV,   19.4438 Ry                                                             
                                                                                                    
   TITEL  = PAW_PBE N 08Apr2002                                                                     
   LULTRA =        F    use ultrasoft PP ?                                                          
   IUNSCR =        1    unscreen: 0-lin 1-nonlin 2-no                                               
   RPACOR =    1.200    partial core radius                                                         
   POMASS =   14.001; ZVAL   =    5.000    mass and valenz                                          
   RCORE  =    1.500    outmost cutoff radius                                                       
   RWIGS  =    1.400; RWIGS  =    0.741    wigner-seitz radius (au A)                               
   ENMAX  =  400.000; ENMIN  =  300.000 eV                                                          
   ICORE  =        2    local potential                                                             
   LCOR   =        T    correct aug charges                                                         
   LPAW   =        T    paw PP                                                                      
   EAUG   =  627.112                                                                                
   DEXC   =    0.000                                                                                
   RMAX   =    1.529    core radius for proj-oper                                                   
   RAUG   =    1.300    factor for augmentation sphere                                              
   RDEP   =    1.514    radius for radial grids                                                     
   RDEPT  =    1.338    core radius for aug-charge                                                  
                                                                                                    
   Atomic configuration                                                                             
    4 entries                                                                                       
     n  l   j            E        occ.                                                              
     1  0  0.50      -384.7179   2.0000                                                             
     2  0  0.50       -18.5828   2.0000                                                             
     2  1  0.50        -7.0898   3.0000                                                             
     3  2  1.50        -6.8029   0.0000                                                             
   Description                                                                                      
     l       E           TYP  RCUT    TYP  RCUT                                                     
     0    -18.5828119     23  1.200                                                                 
     0    -13.5018863     23  1.200                                                                 
     1     -7.0897853     23  1.500                                                                 
     1      9.5240782     23  1.500                                                                 
     2     -6.8029130      7  1.500                                                                 
  local pseudopotential read in
  partial core-charges read in
  partial kinetic energy density read in
  atomic valenz-charges read in
  non local Contribution for L=           0  read in
    real space projection operators read in
  non local Contribution for L=           0  read in
    real space projection operators read in
  non local Contribution for L=           1  read in
    real space projection operators read in
  non local Contribution for L=           1  read in
    real space projection operators read in
    PAW grid and wavefunctions read in

   number of l-projection  operators is LMAX  =           4
   number of lm-projection operators is LMMAX =           8

 POTCAR:    PAW_PBE Sn 08Apr2002                  
   SHA256 =  fa972ea603024cb82d8554cfb4e3c683082552a2e54046a4c72c994edc589ce1 Sn/POTCAR             
   COPYR  = (c) Copyright 08Apr2002 Georg Kresse                                                    
   COPYR  = This file is part of the software VASP. Any use, copying, and all other rights are regul
   COPYR  = If you do not have a valid VASP license, you may not use, copy or distribute this file. 
   VRHFIN =Sn: s2p2                                                                                 
   LEXCH  = PE                                                                                      
   EATOM  =    94.0860 eV,    6.9151 Ry                                                             
                                                                                                    
   TITEL  = PAW_PBE Sn 08Apr2002                                                                    
   LULTRA =        F    use ultrasoft PP ?                                                          
   IUNSCR =        1    unscreen: 0-lin 1-nonlin 2-no                                               
   RPACOR =    2.000    partial core radius                                                         
   POMASS =  118.710; ZVAL   =    4.000    mass and valenz                                          
   RCORE  =    3.000    outmost cutoff radius                                                       
   RWIGS  =    2.960; RWIGS  =    1.566    wigner-seitz radius (au A)                               
   ENMAX  =  103.236; ENMIN  =   77.427 eV                                                          
   ICORE  =        3    local potential                                                             
   LCOR   =        T    correct aug charges                                                         
   LPAW   =        T    paw PP                                                                      
   EAUG   =  263.585                                                                                
   DEXC   =    0.000                                                                                
   RMAX   =    3.078    core radius for proj-oper                                                   
   RAUG   =    1.300    factor for augmentation sphere                                              
   RDEP   =    3.022    radius for radial grids                                                     
   RDEPT  =    2.655    core radius for aug-charge                                                  
                                                                                                    
   Atomic configuration                                                                             
   13 entries                                                                                       
     n  l   j            E        occ.                                                              
     1  0  0.50    -29007.2859   2.0000                                                             
     2  0  0.50     -4378.8056   2.0000                                                             
     2  1  1.50     -3930.4293   6.0000                                                             
     3  0  0.50      -845.0264   2.0000                                                             
     3  1  1.50      -698.5725   6.0000                                                             
     3  2  2.50      -473.2839  10.0000                                                             
     4  0  0.50      -133.9036   2.0000                                                             
     4  1  1.50       -89.6752   6.0000                                                             
     4  2  2.50       -25.8375  10.0000                                                             
     5  0  0.50       -10.5484   2.0000                                                             
     5  1  0.50        -3.6940   2.0000                                                             
     5  2  1.50        -1.3606   0.0000                                                             
     4  3  2.50        -4.0817   0.0000                                                             
   Description                                                                                      
     l       E           TYP  RCUT    TYP  RCUT                                                     
     0    -10.5483727     23  3.000                                                                 
     0     27.2116520     23  3.000                                                                 
     1     -3.6939829     23  3.000                                                                 
     1      1.9821976     23  3.000                                                                 
     2     -1.3605826     23  3.000                                                                 
     3     -2.7211652     23  3.000                                                                 
  local pseudopotential read in
  partial core-charges read in
  partial kinetic energy density read in
  atomic valenz-charges read in
  non local Contribution for L=           0  read in
    real space projection operators read in
  non local Contribution for L=           0  read in
    real space projection operators read in
  non local Contribution for L=           1  read in
    real space projection operators read in
  non local Contribution for L=           1  read in
    real space projection operators read in
  non local Contribution for L=           2  read in
    real space projection operators read in
    PAW grid and wavefunctions read in

   number of l-projection  operators is LMAX  =           5
   number of lm-projection operators is LMMAX =          13

 -----------------------------------------------------------------------------
|                                                                             |
|               ----> ADVICE to this user running VASP <----                  |
|                                                                             |
|     You have a (more or less) 'large supercell' and for larger cells it     |
|     might be more efficient to use real-space projection operators.         |
|     Therefore, try LREAL= Auto in the INCAR file.                           |
|     Mind: For very accurate calculation, you might also keep the            |
|     reciprocal projection scheme (i.e. LREAL=.FALSE.).                      |
|                                                                             |
 -----------------------------------------------------------------------------

 WARNING: PSMAXN for non-local potential too small
          PSMAXN should be >   16.200796971202056       NTYP=           5
 -----------------------------------------------------------------------------
|                                                                             |
|               ----> ADVICE to this user running VASP <----                  |
|                                                                             |
|     You enforced a specific xc type in the INCAR file but a different       |
|     type was found in the POTCAR file.                                      |
|     I HOPE YOU KNOW WHAT YOU ARE DOING!                                     |
|                                                                             |
 -----------------------------------------------------------------------------

  PAW_PBE C 08Apr2002                   :
 energy of atom  1       EATOM= -147.1560
 kinetic energy error for atom=    0.0010 (will be added to EATOM!!)
  PAW_PBE H 15Jun2001                   :
 energy of atom  2       EATOM=  -12.4884
 kinetic energy error for atom=    0.0001 (will be added to EATOM!!)
  PAW_PBE I 08Apr2002                   :
 energy of atom  3       EATOM= -315.8678
 kinetic energy error for atom=    0.0001 (will be added to EATOM!!)
  PAW_PBE N 08Apr2002                   :
 energy of atom  4       EATOM= -264.5486
 kinetic energy error for atom=    0.0015 (will be added to EATOM!!)
  PAW_PBE Sn 08Apr2002                  :
 energy of atom  5       EATOM=  -94.0860
 kinetic energy error for atom=    0.0000 (will be added to EATOM!!)


 POSCAR:  C  H  I  N Sn
  positions in direct lattice
  velocities in cartesian coordinates
 exchange correlation table for  LEXCH =       43
   RHO(1)=    0.500       N(1)  =     2000
   RHO(2)=  100.500       N(2)  =     4000



--------------------------------------------------------------------------------------------------------


 ion  position               nearest neighbor table
   1  0.662  0.531  0.310-   9 1.10  37 1.31  38 1.32
   2  0.321  0.463  0.794-  14 1.10  39 1.31  40 1.32
   3  0.842  0.067  0.758-  19 1.09  42 1.31  41 1.32
   4  0.178  0.025  0.204-  24 1.09  43 1.31  44 1.31
   5  0.675  0.457  0.060-  38 1.03
   6  0.658  0.292  0.319-  37 1.03
   7  0.643  0.394  0.513-  37 1.02
   8  0.678  0.658  0.100-  38 1.02
   9  0.658  0.637  0.391-   1 1.10
  10  0.362  0.585  0.583-  40 1.03
  11  0.446  0.557  0.859-  39 1.03
  12  0.393  0.441  0.012-  39 1.03
  13  0.257  0.491  0.568-  40 1.02
  14  0.265  0.391  0.840-   2 1.10
  15  0.839  0.838  0.829-  42 1.03
  16  0.855  0.940  0.533-  41 1.03
  17  0.854  0.140  0.516-  41 1.02
  18  0.833  0.980  0.994-  42 1.02
  19  0.839  0.186  0.810-   3 1.09
  20  0.133  0.945  0.435-  44 1.03
  21  0.180  0.786  0.174-  43 1.03
  22  0.216  0.893  1.000-  43 1.02
  23  0.141  0.146  0.418-  44 1.02
  24  0.193  0.132  0.138-   4 1.09
  25  0.604  0.240  0.815-  45 3.10  46 3.41
  26  0.417  0.745  0.294-  46 3.05  45 3.30
  27  0.930  0.776  0.255-  47 3.10  48 3.23
  28  0.079  0.254  0.745-  48 3.10  47 3.29
  29  0.330  0.018  0.761-  46 3.13  45 3.20
  30  0.672  0.978  0.259-  45 3.18  46 3.23
  31  0.171  0.479  0.234-  47 3.21  48 3.24
  32  0.828  0.533  0.734-  47 3.16  48 3.17
  33  0.415  0.245  0.272-  45 3.11  46 3.22
  34  0.581  0.736  0.751-  46 3.13  45 3.29
  35  0.087  0.757  0.711-  47 3.06  48 3.30
  36  0.895  0.273  0.198-  48 3.10  47 3.33
  37  0.654  0.397  0.385-   7 1.02   6 1.03   1 1.31
  38  0.674  0.548  0.146-   8 1.02   5 1.03   1 1.32
  39  0.390  0.492  0.896-  12 1.03  11 1.03   2 1.31
  40  0.314  0.516  0.639-  13 1.02  10 1.03   2 1.32
  41  0.849  0.047  0.592-  17 1.02  16 1.03   3 1.32
  42  0.837  0.953  0.867-  18 1.02  15 1.03   3 1.31
  43  0.191  0.892  0.121-  22 1.02  21 1.03   4 1.31
  44  0.149  0.039  0.362-  23 1.02  20 1.03   4 1.31
  45  0.497  0.997  0.022-  25 3.10  33 3.11  30 3.18  29 3.20  34 3.29  26 3.30
  46  0.502  0.997  0.523-  26 3.05  29 3.13  34 3.13  33 3.22  30 3.23  25 3.41
  47  0.997  0.509  0.482-  35 3.06  27 3.10  32 3.16  31 3.21  28 3.29  36 3.33
  48  0.998  0.513  0.982-  36 3.10  28 3.10  32 3.17  27 3.23  31 3.24  35 3.30


IMPORTANT INFORMATION: All symmetrisations will be switched off!
NOSYMM: (Re-)initialisation of all symmetry stuff for point group C_1.


----------------------------------------------------------------------------------------

                                     Primitive cell                                     

  volume of cell :     987.8522

  direct lattice vectors                    reciprocal lattice vectors
    14.596021526 -0.012253857  0.024984028     0.068512115  0.000044636 -0.000150153
    -0.005854289  8.609831139 -0.111777447     0.000094846  0.116166684  0.001565384
     0.017299934 -0.105959037  7.862138732    -0.000216367  0.001651421  0.127214586

  length of vectors
    14.596048053  8.610558676  7.862871743     0.068512294  0.116177269  0.127225489

  position of ions in fractional coordinates (direct lattice)
     0.661710800  0.531331515  0.310434243
     0.320927937  0.463294732  0.793649601
     0.841573748  0.066707990  0.758192525
     0.178402794  0.024683921  0.204237630
     0.675406996  0.456705005  0.060133945
     0.657693251  0.292215273  0.319401169
     0.642924104  0.393665555  0.513231164
     0.677765767  0.658243183  0.100435275
     0.657751031  0.637033830  0.390808605
     0.361981287  0.584800634  0.583067489
     0.446047965  0.556803951  0.858557288
     0.392923325  0.440802181  0.011590219
     0.256637745  0.490603679  0.568000505
     0.264839285  0.390878583  0.839889442
     0.839045425  0.838172837  0.828874801
     0.855125130  0.939744876  0.532987570
     0.853918099  0.140447679  0.515599994
     0.832816078  0.979575097  0.993788470
     0.838754257  0.186006662  0.809564053
     0.132675369  0.945258921  0.435165356
     0.180201169  0.785981961  0.174406865
     0.216328364  0.893468386  0.999518615
     0.141354403  0.146287651  0.417840587
     0.193442542  0.131940175  0.137713776
     0.603503469  0.240264151  0.815308852
     0.417388163  0.744503045  0.294223709
     0.930261220  0.775718899  0.255387375
     0.078924828  0.254062070  0.745373274
     0.329645378  0.017786301  0.761156903
     0.671882046  0.977722200  0.259393305
     0.171240630  0.478571981  0.233996680
     0.827686482  0.532675140  0.733840110
     0.414638136  0.245498389  0.271695588
     0.580936208  0.736096892  0.751212130
     0.087343148  0.756990471  0.710529115
     0.894586774  0.273289619  0.198407166
     0.654032175  0.397055135  0.384694033
     0.674084080  0.548443982  0.146222660
     0.390216757  0.492456097  0.895722946
     0.313597990  0.515857978  0.638660622
     0.848576988  0.046716429  0.592231157
     0.837495887  0.953414626  0.866594699
     0.190624774  0.892215303  0.120857291
     0.148972997  0.038555376  0.362170122
     0.496525548  0.996796550  0.021754896
     0.501677275  0.996805829  0.523411167
     0.996592582  0.509109327  0.481611562
     0.997865038  0.513208506  0.981920291

  ion indices of the primitive-cell ions
   primitive index   ion index
                 1           1
                 2           2
                 3           3
                 4           4
                 5           5
                 6           6
                 7           7
                 8           8
                 9           9
                10          10
                11          11
                12          12
                13          13
                14          14
                15          15
                16          16
                17          17
                18          18
                19          19
                20          20
                21          21
                22          22
                23          23
                24          24
                25          25
                26          26
                27          27
                28          28
                29          29
                30          30
                31          31
                32          32
                33          33
                34          34
                35          35
                36          36
                37          37
                38          38
                39          39
                40          40
                41          41
                42          42
                43          43
                44          44
                45          45
                46          46
                47          47
                48          48

----------------------------------------------------------------------------------------



 KPOINTS: k-points                                

Automatic generation of k-mesh.
 Grid dimensions read from file:
 generate k-points for:    2    3    3

 Generating k-lattice:

  Cartesian coordinates                     Fractional coordinates (reciprocal lattice)
     0.034256057  0.000022318 -0.000075077     0.500000000 -0.000000000  0.000000000
     0.000031615  0.038722228  0.000521795    -0.000000000  0.333333333 -0.000000000
    -0.000072122  0.000550474  0.042404862    -0.000000000  0.000000000  0.333333333

  Length of vectors
     0.034256147  0.038725756  0.042408496

  Shift w.r.t. Gamma in fractional coordinates (k-lattice)
     0.000000000  0.000000000  0.000000000

 
 Subroutine IBZKPT returns following result:
 ===========================================
 
 Found     10 irreducible k-points:
 
 Following reciprocal coordinates:
            Coordinates               Weight
  0.000000  0.000000  0.000000      1.000000
  0.500000  0.000000  0.000000      1.000000
  0.000000  0.333333  0.000000      2.000000
  0.500000  0.333333  0.000000      2.000000
  0.000000  0.000000  0.333333      2.000000
  0.500000  0.000000  0.333333      2.000000
  0.000000  0.333333  0.333333      2.000000
  0.500000  0.333333  0.333333      2.000000
  0.000000 -0.333333  0.333333      2.000000
  0.500000 -0.333333  0.333333      2.000000
 
 Following cartesian coordinates:
            Coordinates               Weight
  0.000000  0.000000  0.000000      1.000000
  0.034256  0.000022 -0.000075      1.000000
  0.000032  0.038722  0.000522      2.000000
  0.034288  0.038745  0.000447      2.000000
 -0.000072  0.000550  0.042405      2.000000
  0.034184  0.000573  0.042330      2.000000
 -0.000041  0.039273  0.042927      2.000000
  0.034216  0.039295  0.042852      2.000000
 -0.000104 -0.038172  0.041883      2.000000
  0.034152 -0.038149  0.041808      2.000000
 


--------------------------------------------------------------------------------------------------------




 Dimension of arrays:
   k-points           NKPTS =     10   k-points in BZ     NKDIM =     10   number of bands    NBANDS=    120
   number of dos      NEDOS =    301   number of ions     NIONS =     48
   non local maximal  LDIM  =      5   non local SUM 2l+1 LMDIM =     13
   total plane-waves  NPLWV = ******
   max r-space proj   IRMAX =      1   max aug-charges    IRDMAX= 118051
   dimension x,y,z NGX =   160 NGY =   90 NGZ =   84
   dimension x,y,z NGXF=   320 NGYF=  180 NGZF=  168
   support grid    NGXF=   320 NGYF=  180 NGZF=  168
   ions per type =               4  20  12   8   4
   NGX,Y,Z   is equivalent  to a cutoff of  18.22, 17.38, 17.76 a.u.
   NGXF,Y,Z  is equivalent  to a cutoff of  36.45, 34.75, 35.52 a.u.

 SYSTEM =  hex-FASnI3                              
 POSCAR =   C  H  I  N Sn                          

 Startparameter for this run:
   NWRITE =      2    write-flag & timer
   PREC   = accura    normal or accurate (medium, high low for compatibility)
   ISTART =      0    job   : 0-new  1-cont  2-samecut
   ICHARG =      2    charge: 1-file 2-atom 10-const
   ISPIN  =      1    spin polarized calculation?
   LNONCOLLINEAR =      F non collinear calculations
   LSORBIT =      F    spin-orbit coupling
   INIWAV =      1    electr: 0-lowe 1-rand  2-diag
   LASPH  =      T    aspherical Exc in radial PAW
 Electronic Relaxation 1
   ENCUT  = 1000.0 eV  73.50 Ry    8.57 a.u.  37.63 22.20 20.27*2*pi/ulx,y,z
   ENINI  = 1000.0     initial cutoff
   ENAUG  =  644.9 eV  augmentation charge cutoff
   NELM   =    200;   NELMIN=  8; NELMDL= -5     # of ELM steps 
   EDIFF  = 0.5E-05   stopping-criterion for ELM
   LREAL  =      F    real-space projection
   NLSPLINE    = F    spline interpolate recip. space projectors
   LCOMPAT=      F    compatible to vasp.4.4
   GGA_COMPAT  = T    GGA compatible to vasp.4.4-vasp.4.6
   LMAXPAW     = -100 max onsite density
   LMAXMIX     =    2 max onsite mixed and CHGCAR
   VOSKOWN=      0    Vosko Wilk Nusair interpolation
   ROPT   =    0.00000   0.00000   0.00000   0.00000
   ROPT   =    0.00000
 Ionic relaxation
   EDIFFG = -.1E-01   stopping-criterion for IOM
   NSW    =   1000    number of steps for IOM
   NBLOCK =      1;   KBLOCK =   1000    inner block; outer block 
   IBRION =      2    ionic relax: 0-MD 1-quasi-New 2-CG
   NFREE  =      1    steps in history (QN), initial steepest desc. (CG)
   ISIF   =      3    stress and relaxation
   IWAVPR =     11    prediction:  0-non 1-charg 2-wave 3-comb
   ISYM   =      0    0-nonsym 1-usesym 2-fastsym
   LCORR  =      T    Harris-Foulkes like correction to forces

   POTIM  = 0.5000    time-step for ionic-motion
   TEIN   =    0.0    initial temperature
   TEBEG  =    0.0;   TEEND  =   0.0 temperature during run
   SMASS  =  -3.00    Nose mass-parameter (am)
   estimated Nose-frequenzy (Omega)   =  0.10E-29 period in steps = 0.13E+47 mass=  -0.487E-26a.u.
   SCALEE = 1.0000    scale energy and forces
   NPACO  =    256;   APACO  = 10.0  distance and # of slots for P.C.
   PSTRESS=    0.0 pullay stress

  Mass of Ions in am
   POMASS =  12.01  1.00126.90 14.00118.71
  Ionic Valenz
   ZVAL   =   4.00  1.00  7.00  5.00  4.00
  Atomic Wigner-Seitz radii
   RWIGS  =  -1.00 -1.00 -1.00 -1.00 -1.00
  virtual crystal weights 
   VCA    =   1.00  1.00  1.00  1.00  1.00
   NELECT =     176.0000    total number of electrons
   NUPDOWN=      -1.0000    fix difference up-down

 DOS related values:
   EMIN   =  10.00;   EMAX   =-10.00  energy-range for DOS
   EFERMI =   0.00
   ISMEAR =     0;   SIGMA  =   0.05  broadening in eV -4-tet -1-fermi 0-gaus

 Electronic relaxation 2 (details)
   IALGO  =     58    algorithm
   LDIAG  =      T    sub-space diagonalisation (order eigenvalues)
   LSUBROT=      F    optimize rotation matrix (better conditioning)
   TURBO    =      0    0=normal 1=particle mesh
   IRESTART =      0    0=no restart 2=restart with 2 vectors
   NREBOOT  =      0    no. of reboots
   NMIN     =      0    reboot dimension
   EREF     =   0.00    reference energy to select bands
   IMIX   =      4    mixing-type and parameters
     AMIX     =   0.40;   BMIX     =  1.00
     AMIX_MAG =   1.60;   BMIX_MAG =  1.00
     AMIN     =   0.10
     WC   =   100.;   INIMIX=   1;  MIXPRE=   1;  MAXMIX= -45

 Intra band minimization:
   WEIMIN = 0.0010     energy-eigenvalue tresh-hold
   EBREAK =  0.10E-07  absolut break condition
   DEPER  =   0.30     relativ break condition  

   TIME   =   0.40     timestep for ELM

  volume/ion in A,a.u.               =      20.58       138.88
  Fermi-wavevector in a.u.,A,eV,Ry     =   0.921188  1.740793 11.545738  0.848588
  Thomas-Fermi vector in A             =   2.046577

 Write flags
   LWAVE        =      F    write WAVECAR
   LDOWNSAMPLE  =      F    k-point downsampling of WAVECAR
   LCHARG       =      F    write CHGCAR
   LVTOT        =      F    write LOCPOT, total local potential
   LVHAR        =      F    write LOCPOT, Hartree potential only
   LELF         =      F    write electronic localiz. function (ELF)
   LORBIT       =      0    0 simple, 1 ext, 2 COOP (PROOUT), +10 PAW based schemes


 Dipole corrections
   LMONO  =      F    monopole corrections only (constant potential shift)
   LDIPOL =      F    correct potential (dipole corrections)
   IDIPOL =      0    1-x, 2-y, 3-z, 4-all directions 
   EPSILON=  1.0000000 bulk dielectric constant

 Exchange correlation treatment:
   GGA     =    MK    GGA type
   LEXCH   =    43    internal setting for exchange type
   LIBXC   =     F    Libxc                    
   VOSKOWN =     0    Vosko Wilk Nusair interpolation
   LHFCALC =     F    Hartree Fock is set to
   LHFONE  =     F    Hartree Fock one center treatment
   AEXX    =    0.0000 exact exchange contribution

 vdW DFT:
   LUSE_VDW   =     T    switch on vdW DFT
   Zab_VDW    =-.8491    correlation parameter
   PARAM1     =0.1234
   PARAM2     =1.0000
   PARAM3     =0.0000
   -- rVV10 --
   BPARAM     = 6.3000
   CPARAM     = 0.0093

 Linear response parameters
   LEPSILON=     F    determine dielectric tensor
   LRPA    =     F    only Hartree local field effects (RPA)
   LNABLA  =     F    use nabla operator in PAW spheres
   LVEL    =     F    velocity operator in full k-point grid
   CSHIFT  =0.1000    complex shift for real part using Kramers Kronig
   OMEGAMAX=  -1.0    maximum frequency
   DEG_THRESHOLD= 0.2000000E-02 threshold for treating states as degnerate
   RTIME   =   -0.100 relaxation time in fs
  (WPLASMAI=    0.000 imaginary part of plasma frequency in eV, 0.658/RTIME)
   DFIELD  = 0.0000000 0.0000000 0.0000000 field for delta impulse in time

  Optional k-point grid parameters
   LKPOINTS_OPT  =     F    use optional k-point grid
   KPOINTS_OPT_MODE=     1    mode for optional k-point grid

 Orbital magnetization related:
   ORBITALMAG=     F  switch on orbital magnetization
   LCHIMAG   =     F  perturbation theory with respect to B field
   DQ        =  0.001000  dq finite difference perturbation B field
   LLRAUG    =     F  two centre corrections for induced B field



--------------------------------------------------------------------------------------------------------


 conjugate gradient relaxation of ions
 charge density and potential will be updated during run
 non-spin polarized calculation
 Conjugate gradient for all bands (Freysoldt, et al. PRB 79, 241103 (2009))
 preconditioned conjugated gradient                                        
 perform sub-space diagonalisation
    before iterative eigenvector-optimisation
 modified Broyden-mixing scheme, WC =      100.0
 initial mixing is a Kerker type mixing with AMIX =  0.4000 and BMIX =      1.0000
 Hartree-type preconditioning will be used
 using additional bands           32
 reciprocal scheme for non local part
 use partial core corrections
 no Harris-corrections to forces 
 use gradient corrections 
 use of overlap-Matrix (Vanderbilt PP)
 Gauss-broadening in eV      SIGMA  =   0.05


--------------------------------------------------------------------------------------------------------


  energy-cutoff  :     1000.00
  volume of cell :      987.85
      direct lattice vectors                 reciprocal lattice vectors
    14.596021526 -0.012253857  0.024984028     0.068512115  0.000044636 -0.000150153
    -0.005854289  8.609831139 -0.111777447     0.000094846  0.116166684  0.001565384
     0.017299934 -0.105959037  7.862138732    -0.000216367  0.001651421  0.127214586

  length of vectors
    14.596048053  8.610558676  7.862871743     0.068512294  0.116177269  0.127225489



 k-points in units of 2pi/SCALE and weight: k-points                                
   0.00000000  0.00000000  0.00000000       0.056
   0.03425606  0.00002232 -0.00007508       0.056
   0.00003162  0.03872223  0.00052179       0.111
   0.03428767  0.03874455  0.00044672       0.111
  -0.00007212  0.00055047  0.04240486       0.111
   0.03418393  0.00057279  0.04232979       0.111
  -0.00004051  0.03927270  0.04292666       0.111
   0.03421555  0.03929502  0.04285158       0.111
  -0.00010374 -0.03817175  0.04188307       0.111
   0.03415232 -0.03814944  0.04180799       0.111

 k-points in reciprocal lattice and weights: k-points                                
   0.00000000  0.00000000  0.00000000       0.056
   0.50000000  0.00000000  0.00000000       0.056
   0.00000000  0.33333333  0.00000000       0.111
   0.50000000  0.33333333  0.00000000       0.111
   0.00000000  0.00000000  0.33333333       0.111
   0.50000000  0.00000000  0.33333333       0.111
   0.00000000  0.33333333  0.33333333       0.111
   0.50000000  0.33333333  0.33333333       0.111
   0.00000000 -0.33333333  0.33333333       0.111
   0.50000000 -0.33333333  0.33333333       0.111

 position of ions in fractional coordinates (direct lattice) 
   0.66171080  0.53133152  0.31043424
   0.32092794  0.46329473  0.79364960
   0.84157375  0.06670799  0.75819252
   0.17840279  0.02468392  0.20423763
   0.67540700  0.45670501  0.06013395
   0.65769325  0.29221527  0.31940117
   0.64292410  0.39366556  0.51323116
   0.67776577  0.65824318  0.10043528
   0.65775103  0.63703383  0.39080860
   0.36198129  0.58480063  0.58306749
   0.44604797  0.55680395  0.85855729
   0.39292333  0.44080218  0.01159022
   0.25663775  0.49060368  0.56800050
   0.26483928  0.39087858  0.83988944
   0.83904542  0.83817284  0.82887480
   0.85512513  0.93974488  0.53298757
   0.85391810  0.14044768  0.51559999
   0.83281608  0.97957510  0.99378847
   0.83875426  0.18600666  0.80956405
   0.13267537  0.94525892  0.43516536
   0.18020117  0.78598196  0.17440687
   0.21632836  0.89346839  0.99951861
   0.14135440  0.14628765  0.41784059
   0.19344254  0.13194018  0.13771378
   0.60350347  0.24026415  0.81530885
   0.41738816  0.74450304  0.29422371
   0.93026122  0.77571890  0.25538738
   0.07892483  0.25406207  0.74537327
   0.32964538  0.01778630  0.76115690
   0.67188205  0.97772220  0.25939331
   0.17124063  0.47857198  0.23399668
   0.82768648  0.53267514  0.73384011
   0.41463814  0.24549839  0.27169559
   0.58093621  0.73609689  0.75121213
   0.08734315  0.75699047  0.71052912
   0.89458677  0.27328962  0.19840717
   0.65403217  0.39705513  0.38469403
   0.67408408  0.54844398  0.14622266
   0.39021676  0.49245610  0.89572295
   0.31359799  0.51585798  0.63866062
   0.84857699  0.04671643  0.59223116
   0.83749589  0.95341463  0.86659470
   0.19062477  0.89221530  0.12085729
   0.14897300  0.03855538  0.36217012
   0.49652555  0.99679655  0.02175490
   0.50167728  0.99680583  0.52341117
   0.99659258  0.50910933  0.48161156
   0.99786504  0.51320851  0.98192029

 position of ions in cartesian coordinates  (Angst):
   9.66060500  4.53367280  2.39781841
   4.69528891  3.90086246  6.19601543
  12.29635470  0.48369466  5.97458427
   2.60735982  0.18869744  1.60744270
   9.85662169  3.91750490  0.43860649
   9.60351976  2.47402144  2.49494505
   9.39070829  3.32713418  4.00715452
   9.89056770  5.64841538  0.73299264
   9.60357979  5.43528401  3.01781872
   5.29015009  4.96881777  4.52783372
   6.52211899  4.69755028  6.69900246
   5.73273724  3.78918943  0.05166897
   3.75284429  4.16068525  4.41727219
   3.87784161  3.27315941  6.56625266
  12.25615765  7.11841827  6.44400259
  12.48514392  8.02409127  4.10674440
  12.47190458  1.14413453  4.05935411
  12.16725916  8.31847010  7.72461552
  12.25539166  1.50542735  6.36506901
   1.93852705  8.09078420  3.31898654
   2.62863600  6.74648382  1.28785806
   3.16959444  7.58405304  7.76388915
   2.06958411  1.21350585  3.27230061
   2.82510153  1.11902019  1.07280985
   8.82144783  1.97484918  6.39829314
   6.09293813  6.37375522  2.24043700
  13.57798970  6.64034884  1.94442477
   1.16339604  2.10748536  5.83380154
   4.82457487  0.06844616  5.99056893
   9.80556843  8.38230483  1.94688518
   2.50067836  4.09353152  1.79049909
  12.09050666  4.49834367  5.73069062
   6.05533025  2.07983015  2.11902656
   8.48804399  6.25095352  5.83836907
   1.28272293  6.44120286  5.50384620
  13.05924033  2.32099230  1.55170743
   9.55059841  3.36980144  2.99647640
   9.83826463  4.69825633  1.10516051
   5.70822516  4.14027224  6.99700177
   4.58531181  4.36993543  4.97141206
  12.39582005  0.32906998  4.67218254
  12.23351846  8.10665284  6.72764151
   2.77923083  7.66668129  0.85522982
   2.18045288  0.29175459  2.84684406
   7.24183841  8.57386050  0.07202584
   7.32571170  8.52072224  4.01624472
  14.55163816  4.32010214  3.75448887
  14.57884225  4.30236755  7.68755910



--------------------------------------------------------------------------------------------------------


 k-point   1 :   0.0000 0.0000 0.0000  plane waves:   70977
 k-point   2 :   0.5000 0.0000 0.0000  plane waves:   70940
 k-point   3 :   0.0000 0.3333 0.0000  plane waves:   70953
 k-point   4 :   0.5000 0.3333 0.0000  plane waves:   70900
 k-point   5 :   0.0000 0.0000 0.3333  plane waves:   70935
 k-point   6 :   0.5000 0.0000 0.3333  plane waves:   70902
 k-point   7 :   0.0000 0.3333 0.3333  plane waves:   70971
 k-point   8 :   0.5000 0.3333 0.3333  plane waves:   70930
 k-point   9 :   0.0000-0.3333 0.3333  plane waves:   70922
 k-point  10 :   0.5000-0.3333 0.3333  plane waves:   70968

 maximum and minimum number of plane-waves per node :     17849    17626

 maximum number of plane-waves:     70977
 maximum index in each direction: 
   IXMAX=   37   IYMAX=   22   IZMAX=   20
   IXMIN=  -38   IYMIN=  -22   IZMIN=  -20


 parallel 3D FFT for wavefunctions:
    minimum data exchange during FFTs selected (reduces bandwidth)
 parallel 3D FFT for charge:
    minimum data exchange during FFTs selected (reduces bandwidth)


 total amount of memory used by VASP MPI-rank0   321284. kBytes
=======================================================================

   base      :      30000. kBytes
   nonl-proj :     106325. kBytes
   fftplans  :      19227. kBytes
   grid      :      36611. kBytes
   one-center:         97. kBytes
   wavefun   :     129024. kBytes

     INWAV:  cpu time      0.0000: real time      0.0000
 Broyden mixing: mesh for mixing (old mesh)
   NGX = 75   NGY = 45   NGZ = 41
  (NGX  =320   NGY  =180   NGZ  =168)
  gives a total of 138375 points

 initial charge density was supplied:
 charge density of overlapping atoms calculated
 number of electron     176.0000000 magnetization 
 keeping initial charge density in first step


--------------------------------------------------------------------------------------------------------


 Maximum index for augmentation-charges         2776 (set IRDMAX)


--------------------------------------------------------------------------------------------------------


 First call to EWALD:  gamma=   0.178
 Maximum number of real-space cells 2x 3x 3
 Maximum number of reciprocal cells 4x 2x 2

    FEWALD:  cpu time      0.0031: real time      0.0031


--------------------------------------- Iteration      1(   1)  ---------------------------------------


vdW kernel read from vdw_kernel.bindat
  0.0000  0.2424  0.5071  0.7962  1.1119  1.4567  1.8333  2.2446  2.6937  3.1842
  3.7199  4.3049  4.9438  5.6415  6.4036  7.2358  8.1446  9.1372 10.2212 11.4050
 12.6979 14.1099 15.6519 17.3360 19.1751 21.1837 23.3773 25.7729 28.3892 31.2465
 34.3669 37.7748 41.4965 45.5611 50.0000

    POTLOK:  cpu time      4.1905: real time      4.2268
    SETDIJ:  cpu time      0.1483: real time      0.1483
    TRIAL :  cpu time      6.9643: real time      7.0660
    CORREC:  cpu time      0.0006: real time      0.0006
    --------------------------------------------
      LOOP:  cpu time     11.3434: real time     11.4815

 eigenvalue-minimisations  :  2400
 total energy-change (2. order) : 0.1423884E+04  (-0.1078340E+05)
 number of electron     176.0000000 magnetization 
 augmentation part      176.0000000 magnetization 

 Free energy of the ion-electron system (eV)
  ---------------------------------------------------
  alpha Z        PSCENC =       116.96745598
  Ewald energy   TEWEN  =     -4681.09316738
  -Hartree energ DENC   =     -2068.20220644
  -exchange      EXHF   =         0.00000000
  -V(xc)+E(xc)   XCENC  =      -375.69742240
  PAW double counting   =      6161.33813817    -5338.05185836
  entropy T*S    EENTRO =        -0.01845325
  eigenvalues    EBANDS =       448.16319256
  atomic energy  EATOM  =      7160.47832104
  ---------------------------------------------------
  free energy    TOTEN  =      1423.88399992 eV

  energy without entropy =     1423.90245317  energy(sigma->0) =     1423.89322654


--------------------------------------------------------------------------------------------------------




--------------------------------------- Iteration      1(   2)  ---------------------------------------


    TRIAL :  cpu time      8.0084: real time      8.0148
    CORREC:  cpu time      0.0002: real time      0.0002
    --------------------------------------------
      LOOP:  cpu time      8.0134: real time      8.0278

 eigenvalue-minimisations  :  3032
 total energy-change (2. order) :-0.1405736E+04  (-0.1341790E+04)
 number of electron     176.0000000 magnetization 
 augmentation part      176.0000000 magnetization 

 Free energy of the ion-electron system (eV)
  ---------------------------------------------------
  alpha Z        PSCENC =       116.96745598
  Ewald energy   TEWEN  =     -4681.09316738
  -Hartree energ DENC   =     -2068.20220644
  -exchange      EXHF   =         0.00000000
  -V(xc)+E(xc)   XCENC  =      -375.69742240
  PAW double counting   =      6161.33813817    -5338.05185836
  entropy T*S    EENTRO =        -0.00000000
  eigenvalues    EBANDS =      -957.59105744
  atomic energy  EATOM  =      7160.47832104
  ---------------------------------------------------
  free energy    TOTEN  =        18.14820317 eV

  energy without entropy =       18.14820317  energy(sigma->0) =       18.14820317


--------------------------------------------------------------------------------------------------------




--------------------------------------- Iteration      1(   3)  ---------------------------------------


    TRIAL :  cpu time      8.0401: real time      8.0420
    CORREC:  cpu time      0.0002: real time      0.0002
    --------------------------------------------
      LOOP:  cpu time      8.0450: real time      8.0555

 eigenvalue-minimisations  :  3040
 total energy-change (2. order) :-0.1963453E+03  (-0.1945079E+03)
 number of electron     176.0000000 magnetization 
 augmentation part      176.0000000 magnetization 

 Free energy of the ion-electron system (eV)
  ---------------------------------------------------
  alpha Z        PSCENC =       116.96745598
  Ewald energy   TEWEN  =     -4681.09316738
  -Hartree energ DENC   =     -2068.20220644
  -exchange      EXHF   =         0.00000000
  -V(xc)+E(xc)   XCENC  =      -375.69742240
  PAW double counting   =      6161.33813817    -5338.05185836
  entropy T*S    EENTRO =        -0.00000000
  eigenvalues    EBANDS =     -1153.93634424
  atomic energy  EATOM  =      7160.47832104
  ---------------------------------------------------
  free energy    TOTEN  =      -178.19708363 eV

  energy without entropy =     -178.19708363  energy(sigma->0) =     -178.19708363


--------------------------------------------------------------------------------------------------------




--------------------------------------- Iteration      1(   4)  ---------------------------------------


    TRIAL :  cpu time      7.6201: real time      7.6220
    CORREC:  cpu time      0.0002: real time      0.0002
    --------------------------------------------
      LOOP:  cpu time      7.6346: real time      7.6390

 eigenvalue-minimisations  :  2808
 total energy-change (2. order) :-0.6168129E+01  (-0.6126440E+01)
 number of electron     176.0000000 magnetization 
 augmentation part      176.0000000 magnetization 

 Free energy of the ion-electron system (eV)
  ---------------------------------------------------
  alpha Z        PSCENC =       116.96745598
  Ewald energy   TEWEN  =     -4681.09316738
  -Hartree energ DENC   =     -2068.20220644
  -exchange      EXHF   =         0.00000000
  -V(xc)+E(xc)   XCENC  =      -375.69742240
  PAW double counting   =      6161.33813817    -5338.05185836
  entropy T*S    EENTRO =        -0.00000000
  eigenvalues    EBANDS =     -1160.10447304
  atomic energy  EATOM  =      7160.47832104
  ---------------------------------------------------
  free energy    TOTEN  =      -184.36521243 eV

  energy without entropy =     -184.36521243  energy(sigma->0) =     -184.36521243


--------------------------------------------------------------------------------------------------------




--------------------------------------- Iteration      1(   5)  ---------------------------------------


    TRIAL :  cpu time      8.8812: real time      8.8839
    CORREC:  cpu time      0.0002: real time      0.0002
    CHARGE:  cpu time      0.2626: real time      0.2628
    --------------------------------------------
      LOOP:  cpu time      9.1475: real time      9.1596

 eigenvalue-minimisations  :  3448
 total energy-change (2. order) :-0.1778009E+00  (-0.1776817E+00)
 number of electron     175.9999999 magnetization 
 augmentation part      -21.6548566 magnetization 

 Free energy of the ion-electron system (eV)
  ---------------------------------------------------
  alpha Z        PSCENC =       116.96745598
  Ewald energy   TEWEN  =     -4681.09316738
  -Hartree energ DENC   =     -2068.20220644
  -exchange      EXHF   =         0.00000000
  -V(xc)+E(xc)   XCENC  =      -375.69742240
  PAW double counting   =      6161.33813817    -5338.05185836
  entropy T*S    EENTRO =        -0.00000000
  eigenvalues    EBANDS =     -1160.28227390
  atomic energy  EATOM  =      7160.47832104
  ---------------------------------------------------
  free energy    TOTEN  =      -184.54301329 eV

  energy without entropy =     -184.54301329  energy(sigma->0) =     -184.54301329


--------------------------------------------------------------------------------------------------------




--------------------------------------- Iteration      1(   6)  ---------------------------------------


    POTLOK:  cpu time      3.8123: real time      3.8132
    SETDIJ:  cpu time      0.1572: real time      0.1572
    TRIAL :  cpu time      3.9079: real time      3.9091
    CORREC:  cpu time      4.8027: real time      4.8042
    CHARGE:  cpu time      0.2594: real time      0.2594
    --------------------------------------------
      LOOP:  cpu time     12.9450: real time     12.9554

 eigenvalue-minimisations  :     0
 total energy-change (2. order) : 0.2907205E+02  (-0.1397067E+02)
 number of electron     176.0000000 magnetization 
 augmentation part      -21.9108209 magnetization 

 Free energy of the ion-electron system (eV)
  ---------------------------------------------------
  alpha Z        PSCENC =       116.96745598
  Ewald energy   TEWEN  =     -4681.09316738
  -Hartree energ DENC   =     -2547.79175866
  -exchange      EXHF   =         0.00000000
  -V(xc)+E(xc)   XCENC  =      -344.99832539
  PAW double counting   =     11389.42165558   -10573.74043133
  entropy T*S    EENTRO =        -0.00000000
  eigenvalues    EBANDS =      -674.71471238
  atomic energy  EATOM  =      7160.47832104
  ---------------------------------------------------
  free energy    TOTEN  =      -155.47096255 eV

  energy without entropy =     -155.47096255  energy(sigma->0) =     -155.47096255


--------------------------------------------------------------------------------------------------------




--------------------------------------- Iteration      1(   7)  ---------------------------------------


    POTLOK:  cpu time      3.8223: real time      3.8230
    SETDIJ:  cpu time      0.1479: real time      0.1479
    TRIAL :  cpu time      3.8747: real time      3.8760
    CORREC:  cpu time      4.8122: real time      4.8133
    CHARGE:  cpu time      0.2557: real time      0.2557
    --------------------------------------------
      LOOP:  cpu time     12.9263: real time     12.9301

 eigenvalue-minimisations  :     0
 total energy-change (2. order) :-0.1402049E+02  (-0.1550502E+01)
 number of electron     176.0000000 magnetization 
 augmentation part      -21.7668882 magnetization 

 Free energy of the ion-electron system (eV)
  ---------------------------------------------------
  alpha Z        PSCENC =       116.96745598
  Ewald energy   TEWEN  =     -4681.09316738
  -Hartree energ DENC   =     -2313.18990021
  -exchange      EXHF   =         0.00000000
  -V(xc)+E(xc)   XCENC  =      -357.91543626
  PAW double counting   =     11836.85947055   -11018.67652348
  entropy T*S    EENTRO =        -0.00000000
  eigenvalues    EBANDS =      -912.92167122
  atomic energy  EATOM  =      7160.47832104
  ---------------------------------------------------
  free energy    TOTEN  =      -169.49145099 eV

  energy without entropy =     -169.49145099  energy(sigma->0) =     -169.49145099


--------------------------------------------------------------------------------------------------------




--------------------------------------- Iteration      1(   8)  ---------------------------------------


    POTLOK:  cpu time      3.8192: real time      3.8200
    SETDIJ:  cpu time      0.1553: real time      0.1553
    TRIAL :  cpu time      3.9003: real time      3.9028
    CORREC:  cpu time      4.7974: real time      4.8247
    CHARGE:  cpu time      0.2563: real time      0.2563
    --------------------------------------------
      LOOP:  cpu time     12.9332: real time     12.9732

 eigenvalue-minimisations  :     0
 total energy-change (2. order) :-0.1554556E+01  (-0.4727420E+00)
 number of electron     176.0000000 magnetization 
 augmentation part      -21.7737553 magnetization 

 Free energy of the ion-electron system (eV)
  ---------------------------------------------------
  alpha Z        PSCENC =       116.96745598
  Ewald energy   TEWEN  =     -4681.09316738
  -Hartree energ DENC   =     -2298.44024392
  -exchange      EXHF   =         0.00000000
  -V(xc)+E(xc)   XCENC  =      -358.97242169
  PAW double counting   =     11778.90033962   -10959.93888785
  entropy T*S    EENTRO =        -0.00000000
  eigenvalues    EBANDS =      -928.94740326
  atomic energy  EATOM  =      7160.47832104
  ---------------------------------------------------
  free energy    TOTEN  =      -171.04600747 eV

  energy without entropy =     -171.04600747  energy(sigma->0) =     -171.04600747


--------------------------------------------------------------------------------------------------------




--------------------------------------- Iteration      1(   9)  ---------------------------------------


    POTLOK:  cpu time      3.8163: real time      3.8178
    SETDIJ:  cpu time      0.1565: real time      0.1565
    TRIAL :  cpu time      3.8682: real time      3.8691
    CORREC:  cpu time      4.8045: real time      4.8057
    CHARGE:  cpu time      0.2570: real time      0.2570
    --------------------------------------------
      LOOP:  cpu time     12.9060: real time     12.9190

 eigenvalue-minimisations  :     0
 total energy-change (2. order) :-0.4720941E+00  (-0.1388256E+00)
 number of electron     176.0000000 magnetization 
 augmentation part      -21.8209912 magnetization 

 Free energy of the ion-electron system (eV)
  ---------------------------------------------------
  alpha Z        PSCENC =       116.96745598
  Ewald energy   TEWEN  =     -4681.09316738
  -Hartree energ DENC   =     -2291.80767637
  -exchange      EXHF   =         0.00000000
  -V(xc)+E(xc)   XCENC  =      -359.23849585
  PAW double counting   =     11706.20242863   -10887.33782510
  entropy T*S    EENTRO =        -0.00000000
  eigenvalues    EBANDS =      -935.68914254
  atomic energy  EATOM  =      7160.47832104
  ---------------------------------------------------
  free energy    TOTEN  =      -171.51810160 eV

  energy without entropy =     -171.51810160  energy(sigma->0) =     -171.51810160


--------------------------------------------------------------------------------------------------------




--------------------------------------- Iteration      1(  10)  ---------------------------------------


    POTLOK:  cpu time      3.8178: real time      3.8190
    SETDIJ:  cpu time      0.1504: real time      0.1504
    TRIAL :  cpu time      3.8734: real time      3.8745
    CORREC:  cpu time      4.8086: real time      4.8103
    CHARGE:  cpu time      0.2610: real time      0.2610
    --------------------------------------------
      LOOP:  cpu time     12.9151: real time     12.9284

 eigenvalue-minimisations  :     0
 total energy-change (2. order) :-0.1385816E+00  (-0.4415329E-01)
 number of electron     176.0000000 magnetization 
 augmentation part      -21.8137670 magnetization 

 Free energy of the ion-electron system (eV)
  ---------------------------------------------------
  alpha Z        PSCENC =       116.96745598
  Ewald energy   TEWEN  =     -4681.09316738
  -Hartree energ DENC   =     -2289.91576014
  -exchange      EXHF   =         0.00000000
  -V(xc)+E(xc)   XCENC  =      -359.19789064
  PAW double counting   =     11695.16651328   -10876.45487398
  entropy T*S    EENTRO =        -0.00000000
  eigenvalues    EBANDS =      -937.60728132
  atomic energy  EATOM  =      7160.47832104
  ---------------------------------------------------
  free energy    TOTEN  =      -171.65668317 eV

  energy without entropy =     -171.65668317  energy(sigma->0) =     -171.65668317


--------------------------------------------------------------------------------------------------------




--------------------------------------- Iteration      1(  11)  ---------------------------------------


    POTLOK:  cpu time      3.8163: real time      3.8171
    SETDIJ:  cpu time      0.1492: real time      0.1492
    TRIAL :  cpu time      3.8729: real time      3.8739
    CORREC:  cpu time      4.8118: real time      4.8137
    CHARGE:  cpu time      0.2584: real time      0.2584
    --------------------------------------------
      LOOP:  cpu time     12.9119: real time     12.9252

 eigenvalue-minimisations  :     0
 total energy-change (2. order) :-0.4404354E-01  (-0.1024481E-01)
 number of electron     176.0000000 magnetization 
 augmentation part      -21.8085827 magnetization 

 Free energy of the ion-electron system (eV)
  ---------------------------------------------------
  alpha Z        PSCENC =       116.96745598
  Ewald energy   TEWEN  =     -4681.09316738
  -Hartree energ DENC   =     -2289.30245300
  -exchange      EXHF   =         0.00000000
  -V(xc)+E(xc)   XCENC  =      -359.23965525
  PAW double counting   =     11704.27015480   -10885.51515521
  entropy T*S    EENTRO =        -0.00000000
  eigenvalues    EBANDS =      -938.26622768
  atomic energy  EATOM  =      7160.47832104
  ---------------------------------------------------
  free energy    TOTEN  =      -171.70072670 eV

  energy without entropy =     -171.70072670  energy(sigma->0) =     -171.70072670


--------------------------------------------------------------------------------------------------------




--------------------------------------- Iteration      1(  12)  ---------------------------------------


    POTLOK:  cpu time      3.8129: real time      3.8139
    SETDIJ:  cpu time      0.1581: real time      0.1581
    TRIAL :  cpu time      3.8688: real time      3.8702
    CORREC:  cpu time      4.8273: real time      4.8289
    CHARGE:  cpu time      0.2587: real time      0.2587
    --------------------------------------------
      LOOP:  cpu time     12.9394: real time     12.9436

 eigenvalue-minimisations  :     0
 total energy-change (2. order) :-0.1023923E-01  (-0.2553626E-02)
 number of electron     176.0000000 magnetization 
 augmentation part      -21.8090317 magnetization 

 Free energy of the ion-electron system (eV)
  ---------------------------------------------------
  alpha Z        PSCENC =       116.96745598
  Ewald energy   TEWEN  =     -4681.09316738
  -Hartree energ DENC   =     -2288.13540660
  -exchange      EXHF   =         0.00000000
  -V(xc)+E(xc)   XCENC  =      -359.33337238
  PAW double counting   =     11700.32873447   -10881.54141078
  entropy T*S    EENTRO =        -0.00000000
  eigenvalues    EBANDS =      -939.38212028
  atomic energy  EATOM  =      7160.47832104
  ---------------------------------------------------
  free energy    TOTEN  =      -171.71096593 eV

  energy without entropy =     -171.71096593  energy(sigma->0) =     -171.71096593


--------------------------------------------------------------------------------------------------------




--------------------------------------- Iteration      1(  13)  ---------------------------------------


    POTLOK:  cpu time      3.8232: real time      3.8242
    SETDIJ:  cpu time      0.1439: real time      0.1442
    TRIAL :  cpu time      3.8744: real time      3.8755
    CORREC:  cpu time      4.8158: real time      4.8171
    CHARGE:  cpu time      0.2641: real time      0.2644
    --------------------------------------------
      LOOP:  cpu time     12.9249: real time     12.9393

 eigenvalue-minimisations  :     0
 total energy-change (2. order) :-0.2555791E-02  (-0.5697167E-03)
 number of electron     176.0000000 magnetization 
 augmentation part      -21.8077624 magnetization 

 Free energy of the ion-electron system (eV)
  ---------------------------------------------------
  alpha Z        PSCENC =       116.96745598
  Ewald energy   TEWEN  =     -4681.09316738
  -Hartree energ DENC   =     -2288.25825928
  -exchange      EXHF   =         0.00000000
  -V(xc)+E(xc)   XCENC  =      -359.33038492
  PAW double counting   =     11688.66631066   -10869.89142245
  entropy T*S    EENTRO =        -0.00000000
  eigenvalues    EBANDS =      -939.25237537
  atomic energy  EATOM  =      7160.47832104
  ---------------------------------------------------
  free energy    TOTEN  =      -171.71352173 eV

  energy without entropy =     -171.71352173  energy(sigma->0) =     -171.71352173


--------------------------------------------------------------------------------------------------------




--------------------------------------- Iteration      1(  14)  ---------------------------------------


    POTLOK:  cpu time      3.8188: real time      3.8203
    SETDIJ:  cpu time      0.1534: real time      0.1534
    TRIAL :  cpu time      3.8717: real time      3.8728
    CORREC:  cpu time      4.8233: real time      4.8246
    CHARGE:  cpu time      0.2574: real time      0.2579
    --------------------------------------------
      LOOP:  cpu time     12.9282: real time     12.9421

 eigenvalue-minimisations  :     0
 total energy-change (2. order) :-0.5712816E-03  (-0.1291712E-03)
 number of electron     176.0000000 magnetization 
 augmentation part      -21.8069757 magnetization 

 Free energy of the ion-electron system (eV)
  ---------------------------------------------------
  alpha Z        PSCENC =       116.96745598
  Ewald energy   TEWEN  =     -4681.09316738
  -Hartree energ DENC   =     -2288.16588130
  -exchange      EXHF   =         0.00000000
  -V(xc)+E(xc)   XCENC  =      -359.33811998
  PAW double counting   =     11683.71080087   -10864.93980705
  entropy T*S    EENTRO =        -0.00000000
  eigenvalues    EBANDS =      -939.33369518
  atomic energy  EATOM  =      7160.47832104
  ---------------------------------------------------
  free energy    TOTEN  =      -171.71409301 eV

  energy without entropy =     -171.71409301  energy(sigma->0) =     -171.71409301


--------------------------------------------------------------------------------------------------------




--------------------------------------- Iteration      1(  15)  ---------------------------------------


    POTLOK:  cpu time      3.8111: real time      3.8121
    SETDIJ:  cpu time      0.1586: real time      0.1586
    TRIAL :  cpu time      3.8719: real time      3.8730
    CORREC:  cpu time      4.8045: real time      4.8062
    CHARGE:  cpu time      0.2582: real time      0.2584
    --------------------------------------------
      LOOP:  cpu time     12.9087: real time     12.9207

 eigenvalue-minimisations  :     0
 total energy-change (2. order) :-0.1300346E-03  (-0.3151625E-04)
 number of electron     176.0000000 magnetization 
 augmentation part      -21.8073176 magnetization 

 Free energy of the ion-electron system (eV)
  ---------------------------------------------------
  alpha Z        PSCENC =       116.96745598
  Ewald energy   TEWEN  =     -4681.09316738
  -Hartree energ DENC   =     -2288.20277904
  -exchange      EXHF   =         0.00000000
  -V(xc)+E(xc)   XCENC  =      -359.33861268
  PAW double counting   =     11683.59594081   -10864.82341700
  entropy T*S    EENTRO =        -0.00000000
  eigenvalues    EBANDS =      -939.29796477
  atomic energy  EATOM  =      7160.47832104
  ---------------------------------------------------
  free energy    TOTEN  =      -171.71422304 eV

  energy without entropy =     -171.71422304  energy(sigma->0) =     -171.71422304


--------------------------------------------------------------------------------------------------------




--------------------------------------- Iteration      1(  16)  ---------------------------------------


    POTLOK:  cpu time      3.8232: real time      3.8241
    SETDIJ:  cpu time      0.1451: real time      0.1453
    TRIAL :  cpu time      3.8675: real time      3.8686
    CORREC:  cpu time      4.8228: real time      4.8249
    CHARGE:  cpu time      0.2569: real time      0.2570
    --------------------------------------------
      LOOP:  cpu time     12.9193: real time     12.9337

 eigenvalue-minimisations  :     0
 total energy-change (2. order) :-0.3167755E-04  (-0.8430044E-05)
 number of electron     176.0000000 magnetization 
 augmentation part      -21.8074734 magnetization 

 Free energy of the ion-electron system (eV)
  ---------------------------------------------------
  alpha Z        PSCENC =       116.96745598
  Ewald energy   TEWEN  =     -4681.09316738
  -Hartree energ DENC   =     -2288.21431705
  -exchange      EXHF   =         0.00000000
  -V(xc)+E(xc)   XCENC  =      -359.33905837
  PAW double counting   =     11684.50161240   -10865.72819379
  entropy T*S    EENTRO =        -0.00000000
  eigenvalues    EBANDS =      -939.28690754
  atomic energy  EATOM  =      7160.47832104
  ---------------------------------------------------
  free energy    TOTEN  =      -171.71425472 eV

  energy without entropy =     -171.71425472  energy(sigma->0) =     -171.71425472


--------------------------------------------------------------------------------------------------------




--------------------------------------- Iteration      1(  17)  ---------------------------------------


    POTLOK:  cpu time      3.8103: real time      3.8111
    SETDIJ:  cpu time      0.1672: real time      0.1674
    TRIAL :  cpu time      3.8753: real time      3.8763
    CORREC:  cpu time      4.8169: real time      4.8184
    CHARGE:  cpu time      0.2581: real time      0.2581
    --------------------------------------------
      LOOP:  cpu time     12.9318: real time     12.9451

 eigenvalue-minimisations  :     0
 total energy-change (2. order) :-0.8468490E-05  (-0.2731044E-05)
 number of electron     176.0000000 magnetization 
 augmentation part      -21.8074712 magnetization 

 Free energy of the ion-electron system (eV)
  ---------------------------------------------------
  alpha Z        PSCENC =       116.96745598
[...]
    105       6.0927      0.00000
    106       6.3790      0.00000
    107       6.4653      0.00000
    108       6.7097      0.00000
    109       6.8072      0.00000
    110       6.8849      0.00000
    111       6.9792      0.00000
    112       7.0711      0.00000
    113       7.1476      0.00000
    114       7.2051      0.00000
    115       7.2633      0.00000
    116       7.3881      0.00000
    117       7.5052      0.00000
    118       7.5675      0.00000
    119       7.6569      0.00000
    120       7.8020      0.00000

 k-point    10 :       0.5000   -0.3333    0.3333
  band No.  band energies     occupation 
      1     -18.9105      2.00000
      2     -18.8761      2.00000
      3     -18.8686      2.00000
      4     -18.8443      2.00000
      5     -16.7040      2.00000
      6     -16.6614      2.00000
      7     -16.6573      2.00000
      8     -16.6177      2.00000
      9     -10.7926      2.00000
     10     -10.7565      2.00000
     11     -10.7199      2.00000
     12     -10.6713      2.00000
     13     -10.4985      2.00000
     14     -10.4713      2.00000
     15     -10.3840      2.00000
     16     -10.3164      2.00000
     17     -10.2436      2.00000
     18     -10.1983      2.00000
     19     -10.1749      2.00000
     20     -10.1454      2.00000
     21     -10.1064      2.00000
     22     -10.0942      2.00000
     23     -10.0746      2.00000
     24     -10.0419      2.00000
     25      -8.7886      2.00000
     26      -8.7643      2.00000
     27      -8.7499      2.00000
     28      -8.7207      2.00000
     29      -8.1414      2.00000
     30      -8.1079      2.00000
     31      -8.1025      2.00000
     32      -8.0496      2.00000
     33      -6.4800      2.00000
     34      -6.4414      2.00000
     35      -6.4297      2.00000
     36      -6.3980      2.00000
     37      -5.0189      2.00000
     38      -4.9689      2.00000
     39      -4.9618      2.00000
     40      -4.9403      2.00000
     41      -4.8930      2.00000
     42      -4.8429      2.00000
     43      -4.8204      2.00000
     44      -4.7602      2.00000
     45      -4.4052      2.00000
     46      -4.3674      2.00000
     47      -4.3561      2.00000
     48      -4.3384      2.00000
     49      -1.6998      2.00000
     50      -1.5589      2.00000
     51      -1.4500      2.00000
     52      -1.3855      2.00000
     53      -1.3355      2.00000
     54      -1.2946      2.00000
     55      -1.2472      2.00000
     56      -1.2022      2.00000
     57      -1.1493      2.00000
     58      -1.1026      2.00000
     59      -1.0304      2.00000
     60      -1.0067      2.00000
     61      -0.9094      2.00000
     62      -0.8972      2.00000
     63      -0.6733      2.00000
     64      -0.6004      2.00000
     65      -0.4390      2.00000
     66      -0.4044      2.00000
     67      -0.3436      2.00000
     68      -0.2716      2.00000
     69      -0.2039      2.00000
     70      -0.1092      2.00000
     71      -0.0772      2.00000
     72      -0.0329      2.00000
     73       0.0721      2.00000
     74       0.0942      2.00000
     75       0.1448      2.00000
     76       0.1956      2.00000
     77       0.2569      2.00000
     78       0.2999      2.00000
     79       0.3110      2.00000
     80       0.3638      2.00000
     81       0.4748      2.00000
     82       0.4986      2.00000
     83       0.5304      2.00000
     84       0.6177      2.00000
     85       0.8856      2.00000
     86       0.9528      2.00000
     87       1.2829      2.00000
     88       1.3988      2.00000
     89       4.0215      0.00000
     90       4.0781      0.00000
     91       4.2007      0.00000
     92       4.2558      0.00000
     93       4.3002      0.00000
     94       4.3511      0.00000
     95       4.4173      0.00000
     96       4.4940      0.00000
     97       4.5496      0.00000
     98       4.6606      0.00000
     99       4.7027      0.00000
    100       4.7337      0.00000
    101       4.7682      0.00000
    102       4.8069      0.00000
    103       4.8803      0.00000
    104       4.9334      0.00000
    105       6.1698      0.00000
    106       6.2722      0.00000
    107       6.5062      0.00000
    108       6.6433      0.00000
    109       6.7992      0.00000
    110       6.8144      0.00000
    111       6.9219      0.00000
    112       7.0219      0.00000
    113       7.0748      0.00000
    114       7.1851      0.00000
    115       7.3337      0.00000
    116       7.3812      0.00000
    117       7.4640      0.00000
    118       7.5535      0.00000
    119       7.7772      0.00000
    120       7.8323      0.00000


--------------------------------------------------------------------------------------------------------


 soft charge-density along one line, spin component           1
         0         1         2         3         4         5         6         7         8         9
 total charge-density along one line

 pseudopotential strength for first ion, spin component:           1
 10.080  13.400  -0.006  -0.004   0.000   0.018   0.012  -0.001
 13.400  17.813  -0.008  -0.006   0.001   0.024   0.016  -0.002
 -0.006  -0.008  -4.225   0.007  -0.001   8.277  -0.012   0.002
 -0.004  -0.006   0.007  -4.230   0.002  -0.012   8.286  -0.002
  0.000   0.001  -0.001   0.002  -4.217   0.002  -0.002   8.273
  0.018   0.024   8.277  -0.012   0.002 -18.341   0.025  -0.003
  0.012   0.016  -0.012   8.286  -0.002   0.025 -18.359   0.001
 -0.001  -0.002   0.002  -0.002   8.273  -0.003   0.001 -18.358
 total augmentation occupancy for first ion, spin component:           1
  8.164  -3.659  -0.391  -0.265   0.027  -0.081  -0.055   0.006
 -3.659   1.721   0.312   0.212  -0.022   0.050   0.034  -0.003
 -0.391   0.312   1.853  -0.041   0.028   0.169  -0.026   0.006
 -0.265   0.212  -0.041   1.867  -0.107  -0.026   0.186  -0.017
  0.027  -0.022   0.028  -0.107   1.064   0.006  -0.017   0.067
 -0.081   0.050   0.169  -0.026   0.006   0.017  -0.005   0.001
 -0.055   0.034  -0.026   0.186  -0.017  -0.005   0.021  -0.002
  0.006  -0.003   0.006  -0.017   0.067   0.001  -0.002   0.004


------------------------ aborting loop because EDIFF is reached ----------------------------------------


    FORLOC:  cpu time      0.0456: real time      0.0456
    FORNL :  cpu time      1.7650: real time      1.7656
    STRESS:  cpu time      5.7362: real time      5.7385
    FORCOR:  cpu time      3.8185: real time      3.8200
    OFIELD:  cpu time      0.0014: real time      0.0014

  FORCE on cell =-STRESS in cart. coord.  units (eV):
  Direction    XX          YY          ZZ          XY          YZ          ZX
  --------------------------------------------------------------------------------------
  Alpha Z   116.96902   116.96902   116.96902
  Ewald   -2521.89382 -1400.65688  -758.50123   159.64491  -212.68345  -152.46250
  Hartree   396.33315   787.79112  1104.18048    43.93528   -92.77644   -50.72061
  E(xc)    -692.38500  -687.73128  -687.55110     0.81252    -0.57407    -0.73297
  Local    -808.09307 -2169.81148 -3088.58578  -178.42670   286.19374   180.50871
  n-local  1649.34188  1649.24842  1652.59848    -0.20510    -0.56175     0.16480
  augment  -477.96791  -480.40506  -479.15798    -0.48885     0.25906     0.24282
  Kinetic  2337.69694  2184.57685  2140.04620   -25.27364    20.12272    22.98511
  Fock        0.00000     0.00000     0.00000     0.00000     0.00000     0.00000
  -------------------------------------------------------------------------------------
  Total       0.00119    -0.01928    -0.00192    -0.00158    -0.02018    -0.01464
  in kB       0.00193    -0.03127    -0.00311    -0.00256    -0.03274    -0.02375
  external pressure =       -0.01 kB  Pullay stress =        0.00 kB


 VOLUME and BASIS-vectors are now :
 -----------------------------------------------------------------------------
  energy-cutoff  :     1000.00
  volume of cell :      987.84
      direct lattice vectors                 reciprocal lattice vectors
    14.596007872 -0.012262063  0.024933037     0.068512178  0.000044673 -0.000149915
    -0.005858691  8.609770765 -0.111831353     0.000094917  0.116167518  0.001566129
     0.017272541 -0.106008086  7.862097006    -0.000215922  0.001652238  0.127215281

  length of vectors
    14.596034319  8.610499010  7.862830621     0.068512356  0.116178113  0.127226193


 FORCES acting on ions:
    Electron-Ion                     Ewald-Force                    Non-Local-Force
 -----------------------------------------------------------------------------------------------
   0.495E+01 -.861E+02 -.601E+02   -.537E+01 0.916E+02 0.638E+02   0.416E+00 -.549E+01 -.378E+01
   0.788E+02 0.586E+02 -.329E+02   -.836E+02 -.626E+02 0.352E+02   0.480E+01 0.395E+01 -.234E+01
   0.188E+01 -.924E+02 -.363E+02   -.196E+01 0.987E+02 0.388E+02   0.835E-01 -.629E+01 -.250E+01
   -.176E+02 -.893E+02 0.514E+02   0.191E+02 0.948E+02 -.545E+02   -.144E+01 -.548E+01 0.317E+01
   -.367E+01 0.461E+02 0.507E+02   0.382E+01 -.516E+02 -.555E+02   -.153E+00 0.549E+01 0.485E+01
   -.138E+01 0.623E+02 0.258E+02   0.175E+01 -.687E+02 -.292E+02   -.373E+00 0.639E+01 0.345E+01
   0.124E+02 0.746E+01 -.671E+02   -.136E+02 -.784E+01 0.744E+02   0.116E+01 0.383E+00 -.730E+01
   -.556E+01 -.623E+02 0.315E+02   0.595E+01 0.692E+02 -.343E+02   -.392E+00 -.693E+01 0.278E+01
   0.204E+01 -.483E+02 -.342E+02   -.237E+01 0.533E+02 0.377E+02   0.330E+00 -.505E+01 -.346E+01
   -.421E+02 -.406E+02 0.358E+02   0.471E+02 0.448E+02 -.390E+02   -.496E+01 -.429E+01 0.328E+01
   -.549E+02 -.352E+02 0.112E+02   0.606E+02 0.391E+02 -.132E+02   -.573E+01 -.387E+01 0.197E+01
   -.643E+01 0.266E+02 -.610E+02   0.681E+01 -.299E+02 0.676E+02   -.374E+00 0.322E+01 -.658E+01
   0.544E+02 0.115E+02 0.411E+02   -.605E+02 -.130E+02 -.452E+02   0.605E+01 0.148E+01 0.411E+01
   0.438E+02 0.336E+02 -.204E+02   -.484E+02 -.371E+02 0.224E+02   0.458E+01 0.353E+01 -.205E+01
   -.126E+01 0.670E+02 0.978E+01   0.141E+01 -.740E+02 -.117E+02   -.151E+00 0.700E+01 0.189E+01
   -.605E+01 0.588E+02 0.364E+02   0.674E+01 -.653E+02 -.398E+02   -.688E+00 0.648E+01 0.337E+01
   -.651E+01 -.520E+02 0.444E+02   0.707E+01 0.579E+02 -.489E+02   -.553E+00 -.585E+01 0.453E+01
   0.371E+01 -.803E+01 -.679E+02   -.419E+01 0.952E+01 0.752E+02   0.476E+00 -.149E+01 -.732E+01
   0.163E+01 -.538E+02 -.211E+02   -.187E+01 0.595E+02 0.233E+02   0.241E+00 -.574E+01 -.220E+01
   0.162E+02 0.486E+02 -.452E+02   -.179E+02 -.543E+02 0.495E+02   0.172E+01 0.569E+01 -.426E+01
   0.776E+01 0.632E+02 -.212E+02   -.878E+01 -.697E+02 0.241E+02   0.102E+01 0.655E+01 -.295E+01
   -.235E+02 0.497E+01 0.638E+02   0.262E+02 -.488E+01 -.707E+02   -.267E+01 -.925E-01 0.688E+01
   0.860E+01 -.601E+02 -.326E+02   -.943E+01 0.668E+02 0.358E+02   0.831E+00 -.670E+01 -.318E+01
   -.104E+02 -.495E+02 0.303E+02   0.117E+02 0.547E+02 -.333E+02   -.122E+01 -.522E+01 0.298E+01
   0.882E+01 0.745E+01 0.522E+01   -.796E+01 -.644E+01 -.544E+01   -.898E+00 -.105E+01 0.222E+00
   0.767E+01 -.582E+00 -.189E+00   -.857E+01 -.947E+00 -.327E+00   0.933E+00 0.159E+01 0.538E+00
   0.885E+00 0.293E+01 0.610E+01   -.138E+01 -.137E+01 -.639E+01   0.512E+00 -.162E+01 0.302E+00
   -.865E+01 0.843E+01 -.107E+02   0.925E+01 -.101E+02 0.108E+02   -.622E+00 0.179E+01 -.779E-01
   0.467E+01 0.374E+01 0.151E+02   -.631E+01 -.344E+01 -.154E+02   0.170E+01 -.311E+00 0.332E+00
   0.268E+00 0.288E+01 -.336E+00   0.130E+01 -.297E+01 0.391E+00   -.163E+01 0.880E-01 -.569E-01
   0.377E+00 0.503E+01 0.165E+01   0.115E+01 -.535E+01 -.181E+01   -.159E+01 0.334E+00 0.164E+00
   -.538E-01 -.178E+01 0.183E+01   -.179E+01 0.173E+01 -.187E+01   0.192E+01 0.595E-01 0.462E-01
   0.978E+01 0.144E+01 -.154E+02   -.107E+02 -.640E-01 0.159E+02   0.993E+00 -.143E+01 -.572E+00
   -.699E+01 -.114E+02 0.386E+01   0.812E+01 0.103E+02 -.379E+01   -.118E+01 0.116E+01 -.727E-01
   -.652E+01 -.672E+01 -.649E+01   0.735E+01 0.825E+01 0.699E+01   -.852E+00 -.158E+01 -.522E+00
   -.211E+02 0.987E+00 -.379E+00   0.203E+02 -.224E+01 0.469E+00   0.909E+00 0.131E+01 -.917E-01
   0.164E+02 0.102E+03 -.747E+02   -.167E+02 -.108E+03 0.779E+02   0.215E+00 0.609E+01 -.312E+01
   -.233E+02 -.332E+02 0.123E+03   0.256E+02 0.339E+02 -.130E+03   -.224E+01 -.648E+00 0.649E+01
   -.832E+02 -.193E+02 -.880E+02   0.881E+02 0.222E+02 0.932E+02   -.487E+01 -.286E+01 -.521E+01
   0.255E+02 -.375E+02 0.120E+03   -.258E+02 0.394E+02 -.127E+03   0.281E+00 -.194E+01 0.617E+01
   -.817E+01 0.181E+01 0.125E+03   0.709E+01 -.261E+01 -.131E+03   0.109E+01 0.807E+00 0.655E+01
   0.369E+01 0.882E+02 -.959E+02   -.399E+01 -.935E+02 0.100E+03   0.292E+00 0.527E+01 -.452E+01
   -.160E+02 0.987E+02 0.772E+02   0.158E+02 -.105E+03 -.812E+02   0.236E+00 0.612E+01 0.394E+01
   0.379E+02 -.271E+02 -.119E+03   -.400E+02 0.276E+02 0.125E+03   0.215E+01 -.459E+00 -.626E+01
   0.478E+01 0.537E+01 0.336E+01   -.495E+01 -.630E+01 -.340E+01   0.232E+00 0.130E+01 0.487E-01
   0.218E+01 -.626E+01 -.487E+01   -.150E+01 0.737E+01 0.513E+01   -.932E+00 -.154E+01 -.363E+00
   -.747E+00 0.661E+01 0.261E+01   0.630E+00 -.773E+01 -.284E+01   0.162E+00 0.155E+01 0.327E+00
   -.459E+01 -.308E+01 -.170E+01   0.495E+01 0.392E+01 0.173E+01   -.485E+00 -.116E+01 -.486E-01
 -----------------------------------------------------------------------------------------------
   0.653E+00 -.546E+00 0.447E+00   -.426E-13 0.782E-13 -.426E-13   -.652E+00 0.545E+00 -.446E+00


 POSITION                                       TOTAL-FORCE (eV/Angst)
 -----------------------------------------------------------------------------------
      9.66058      4.53352      2.39765        -0.000895      0.001804     -0.002816
      4.69533      3.90084      6.19584         0.002355     -0.000731     -0.000039
     12.29632      0.48355      5.97443        -0.000459     -0.001765     -0.000140
      2.60735      0.18870      1.60745         0.001467      0.002767     -0.002258
      9.85656      3.91758      0.43867        -0.003580      0.003260      0.004991
      9.60349      2.47397      2.49489        -0.000904      0.003819      0.003601
      9.39071      3.32708      4.00701         0.001262      0.000779      0.000095
      9.89052      5.64837      0.73292        -0.002735     -0.000467      0.000520
      9.60357      5.43518      3.01770         0.001158     -0.004954     -0.004826
      5.29016      4.96876      4.52779        -0.001180     -0.001911      0.003907
      6.52197      4.69744      6.69892        -0.001932      0.002031     -0.002042
      5.73270      3.78911      0.05171        -0.001955     -0.000577      0.000829
      3.75278      4.16061      4.41725        -0.006774     -0.002553      0.001413
      3.87777      3.27310      6.56617        -0.000186      0.003179     -0.001748
     12.25612      7.11843      6.44391         0.000301     -0.001063     -0.000700
     12.48510      8.02397      4.10668        -0.000884     -0.002082      0.004355
     12.47188      1.14410      4.05927         0.000187     -0.000321      0.000019
     12.16720      8.31842      7.72461        -0.000255      0.002609     -0.000392
     12.25535      1.50542      6.36495        -0.000129     -0.000098     -0.003660
      1.93852      8.09070      3.31891         0.000701     -0.004990      0.000953
      2.62861      6.74636      1.28781        -0.001456     -0.004647      0.002362
      3.16963      7.58396      7.76364         0.000426      0.000502      0.002097
      2.06956      1.21364      3.27230         0.000745     -0.003433     -0.004369
      2.82509      1.11903      1.07274        -0.000763      0.000922     -0.002660
      8.82138      1.97481      6.39819        -0.002527      0.001360     -0.002286
      6.09295      6.37369      2.24040         0.002418     -0.000761      0.003051
     13.57800      6.64029      1.94431         0.002190      0.000913     -0.001273
      1.16335      2.10742      5.83372        -0.001984     -0.001538     -0.002675
      4.82456      0.06840      5.99051         0.000769     -0.000668     -0.000940
      9.80558      8.38224      1.94679         0.002897      0.001178      0.000235
      2.50066      4.09349      1.79046        -0.000200     -0.000139      0.000165
     12.09053      4.49830      5.73060         0.004213      0.002123      0.000499
      6.05531      2.07981      2.11896        -0.000672      0.001121     -0.001353
      8.48803      6.25085      5.83831         0.001746     -0.001587      0.003357
      1.28275      6.44113      5.50377         0.003853      0.001459     -0.000297
     13.05924      2.32094      1.55166         0.001369     -0.001828      0.001808
      9.55058      3.36989      2.99649         0.001427     -0.001706     -0.001546
      9.83823      4.69818      1.10506        -0.001519      0.002773     -0.000477
      5.70830      4.14030      6.99686        -0.001244     -0.000230      0.002644
      4.58516      4.36982      4.97135        -0.001688      0.002867     -0.004268
     12.39580      0.32903      4.67215         0.001770     -0.000534     -0.004576
     12.23347      8.10641      6.72737        -0.002383      0.002025      0.005112
      2.77914      7.66667      0.85540         0.002149     -0.003024     -0.004825
      2.18049      0.29146      2.84667        -0.000967      0.004761      0.005222
      7.24184      8.57380      0.07197         0.001133      0.000182      0.001582
      7.32568      8.52062      4.01613         0.000051     -0.001191     -0.000645
     14.55161      4.32005      3.75442         0.000339      0.001201      0.002591
     14.57883      4.30227      7.68743         0.002347     -0.000836     -0.000597
 -----------------------------------------------------------------------------------
    total drift:                                0.000329     -0.000642      0.001003


--------------------------------------------------------------------------------------------------------



  FREE ENERGIE OF THE ION-ELECTRON SYSTEM (eV)
  ---------------------------------------------------
  free  energy   TOTEN  =      -171.71429051 eV

  energy  without entropy=     -171.71429051  energy(sigma->0) =     -171.71429051

 d Force = 0.2306207E-03[ 0.246E-05, 0.459E-03]  d Energy = 0.2300099E-03 0.611E-06
 d Force = 0.2621250E+00[ 0.261E+00, 0.263E+00]  d Ewald  = 0.1993695E+00 0.628E-01


--------------------------------------------------------------------------------------------------------


    POTLOK:  cpu time      3.9675: real time      3.9694


--------------------------------------------------------------------------------------------------------




--------------------------------------------------------------------------------------------------------


  
 reached required accuracy - stopping structural energy minimisation
     LOOP+:  cpu time    120.0916: real time    120.2033
    4ORBIT:  cpu time      0.0000: real time      0.0000

 total amount of memory used by VASP MPI-rank0   321284. kBytes
=======================================================================

   base      :      30000. kBytes
   nonl-proj :     106325. kBytes
   fftplans  :      19227. kBytes
   grid      :      36611. kBytes
   one-center:         97. kBytes
   wavefun   :     129024. kBytes

  
  
 General timing and accounting informations for this job:
 ========================================================
  
                  Total CPU time used (sec):      490.218
                            User time (sec):      482.964
                          System time (sec):        7.253
                         Elapsed time (sec):      491.980
  
                   Maximum memory used (kb):      643120.
                   Average memory used (kb):          N/A
  
                          Minor page faults:       398856
                          Major page faults:           26
                 Voluntary context switches:         4783
