<?xml version="1.0" encoding="ISO-8859-1"?>
<modeling>
 <generator>
  <i name="program" type="string">vasp </i>
  <i name="version" type="string">6.3.1  </i>
  <i name="subversion" type="string">04May22 (build May 25 2022 13:42:54) complex                          parallel </i>
  <i name="platform" type="string">HPECrayEX_GCC </i>
  <i name="date" type="string">2022 09 20 </i>
  <i name="time" type="string">09:44:05 </i>
 </generator>
 <incar>
  <i type="string" name="SYSTEM">hex-FASnI3</i>
  <i type="int" name="ISTART">     0</i>
  <i type="string" name="PREC">Accurate</i>
  <i type="string" name="ALGO">ALL</i>
  <i type="int" name="ISPIN">     1</i>
  <i type="int" name="NELM">   200</i>
  <i type="int" name="NELMIN">     8</i>
  <i type="int" name="IBRION">     2</i>
  <i name="EDIFF">      0.00000500</i>
  <i name="EDIFFG">     -0.01000000</i>
  <i type="int" name="NSW">  1000</i>
  <i type="int" name="ISIF">     3</i>
  <i type="int" name="ISYM">     0</i>
  <i name="ENCUT">   1000.00000000</i>
  <i type="logical" name="LREAL"> F  </i>
  <i type="int" name="ISMEAR">     0</i>
  <i name="SIGMA">      0.05000000</i>
  <i type="logical" name="LWAVE"> F  </i>
  <i type="logical" name="LCHARG"> F  </i>
  <i type="logical" name="LASPH"> T  </i>
  <i type="string" name="GGA">MK</i>
  <i name="PARAM1">      0.12340000</i>
  <i name="PARAM2">      1.00000000</i>
  <i type="logical" name="LUSE_VDW"> T  </i>
  <i name="AGGAC">      0.00000000</i>
 </incar>
 <primitive_cell>
  <structure name="primitive_cell" >
   <crystal>
    <varray name="basis" >
     <v>      14.59602153      -0.01225386       0.02498403 </v>
     <v>      -0.00585429       8.60983114      -0.11177745 </v>
     <v>       0.01729993      -0.10595904       7.86213873 </v>
    </varray>
    <i name="volume">    987.85219978 </i>
    <varray name="rec_basis" >
     <v>       0.06851211       0.00004464      -0.00015015 </v>
     <v>       0.00009485       0.11616668       0.00156538 </v>
     <v>      -0.00021637       0.00165142       0.12721459 </v>
    </varray>
   </crystal>
   <varray name="positions" >
    <v>       0.66171080       0.53133152       0.31043424 </v>
    <v>       0.32092794       0.46329473       0.79364960 </v>
    <v>       0.84157375       0.06670799       0.75819252 </v>
    <v>       0.17840279       0.02468392       0.20423763 </v>
    <v>       0.67540700       0.45670501       0.06013395 </v>
    <v>       0.65769325       0.29221527       0.31940117 </v>
    <v>       0.64292410       0.39366556       0.51323116 </v>
    <v>       0.67776577       0.65824318       0.10043528 </v>
    <v>       0.65775103       0.63703383       0.39080860 </v>
    <v>       0.36198129       0.58480063       0.58306749 </v>
    <v>       0.44604797       0.55680395       0.85855729 </v>
    <v>       0.39292333       0.44080218       0.01159022 </v>
    <v>       0.25663775       0.49060368       0.56800050 </v>
    <v>       0.26483928       0.39087858       0.83988944 </v>
    <v>       0.83904542       0.83817284       0.82887480 </v>
    <v>       0.85512513       0.93974488       0.53298757 </v>
    <v>       0.85391810       0.14044768       0.51559999 </v>
    <v>       0.83281608       0.97957510       0.99378847 </v>
    <v>       0.83875426       0.18600666       0.80956405 </v>
    <v>       0.13267537       0.94525892       0.43516536 </v>
    <v>       0.18020117       0.78598196       0.17440687 </v>
    <v>       0.21632836       0.89346839       0.99951861 </v>
    <v>       0.14135440       0.14628765       0.41784059 </v>
    <v>       0.19344254       0.13194018       0.13771378 </v>
    <v>       0.60350347       0.24026415       0.81530885 </v>
    <v>       0.41738816       0.74450304       0.29422371 </v>
    <v>       0.93026122       0.77571890       0.25538738 </v>
    <v>       0.07892483       0.25406207       0.74537327 </v>
    <v>       0.32964538       0.01778630       0.76115690 </v>
    <v>       0.67188205       0.97772220       0.25939331 </v>
    <v>       0.17124063       0.47857198       0.23399668 </v>
    <v>       0.82768648       0.53267514       0.73384011 </v>
    <v>       0.41463814       0.24549839       0.27169559 </v>
    <v>       0.58093621       0.73609689       0.75121213 </v>
    <v>       0.08734315       0.75699047       0.71052912 </v>
    <v>       0.89458677       0.27328962       0.19840717 </v>
    <v>       0.65403217       0.39705513       0.38469403 </v>
    <v>       0.67408408       0.54844398       0.14622266 </v>
    <v>       0.39021676       0.49245610       0.89572295 </v>
    <v>       0.31359799       0.51585798       0.63866062 </v>
    <v>       0.84857699       0.04671643       0.59223116 </v>
    <v>       0.83749589       0.95341463       0.86659470 </v>
    <v>       0.19062477       0.89221530       0.12085729 </v>
    <v>       0.14897300       0.03855538       0.36217012 </v>
    <v>       0.49652555       0.99679655       0.02175490 </v>
    <v>       0.50167728       0.99680583       0.52341117 </v>
    <v>       0.99659258       0.50910933       0.48161156 </v>
    <v>       0.99786504       0.51320851       0.98192029 </v>
   </varray>
  </structure>
  <varray name="primitive_index" >
   <v type="int" >        1 </v>
   <v type="int" >        2 </v>
   <v type="int" >        3 </v>
   <v type="int" >        4 </v>
   <v type="int" >        5 </v>
   <v type="int" >        6 </v>
   <v type="int" >        7 </v>
   <v type="int" >        8 </v>
   <v type="int" >        9 </v>
   <v type="int" >       10 </v>
   <v type="int" >       11 </v>
   <v type="int" >       12 </v>
   <v type="int" >       13 </v>
   <v type="int" >       14 </v>
   <v type="int" >       15 </v>
   <v type="int" >       16 </v>
   <v type="int" >       17 </v>
   <v type="int" >       18 </v>
   <v type="int" >       19 </v>
   <v type="int" >       20 </v>
   <v type="int" >       21 </v>
   <v type="int" >       22 </v>
   <v type="int" >       23 </v>
   <v type="int" >       24 </v>
   <v type="int" >       25 </v>
   <v type="int" >       26 </v>
   <v type="int" >       27 </v>
   <v type="int" >       28 </v>
   <v type="int" >       29 </v>
   <v type="int" >       30 </v>
   <v type="int" >       31 </v>
   <v type="int" >       32 </v>
   <v type="int" >       33 </v>
   <v type="int" >       34 </v>
   <v type="int" >       35 </v>
   <v type="int" >       36 </v>
   <v type="int" >       37 </v>
   <v type="int" >       38 </v>
   <v type="int" >       39 </v>
   <v type="int" >       40 </v>
   <v type="int" >       41 </v>
   <v type="int" >       42 </v>
   <v type="int" >       43 </v>
   <v type="int" >       44 </v>
   <v type="int" >       45 </v>
   <v type="int" >       46 </v>
   <v type="int" >       47 </v>
   <v type="int" >       48 </v>
  </varray>
 </primitive_cell>
 <kpoints>
  <generation param="Gamma">
   <v type="int" name="divisions">       2        3        3 </v>
   <v name="usershift">      0.00000000       0.00000000       0.00000000 </v>
   <v name="genvec1">      0.50000000      -0.00000000       0.00000000 </v>
   <v name="genvec2">     -0.00000000       0.33333333      -0.00000000 </v>
   <v name="genvec3">     -0.00000000       0.00000000       0.33333333 </v>
   <v name="shift">      0.00000000       0.00000000       0.00000000 </v>
  </generation>
  <varray name="kpointlist" >
   <v>       0.00000000       0.00000000       0.00000000 </v>
   <v>       0.50000000       0.00000000       0.00000000 </v>
   <v>       0.00000000       0.33333333       0.00000000 </v>
   <v>       0.50000000       0.33333333       0.00000000 </v>
   <v>       0.00000000       0.00000000       0.33333333 </v>
   <v>       0.50000000       0.00000000       0.33333333 </v>
   <v>       0.00000000       0.33333333       0.33333333 </v>
   <v>       0.50000000       0.33333333       0.33333333 </v>
   <v>       0.00000000      -0.33333333       0.33333333 </v>
   <v>       0.50000000      -0.33333333       0.33333333 </v>
  </varray>
  <varray name="weights" >
   <v>       0.05555556 </v>
   <v>       0.05555556 </v>
   <v>       0.11111111 </v>
   <v>       0.11111111 </v>
   <v>       0.11111111 </v>
   <v>       0.11111111 </v>
   <v>       0.11111111 </v>
   <v>       0.11111111 </v>
   <v>       0.11111111 </v>
   <v>       0.11111111 </v>
  </varray>
 </kpoints>
 <parameters>
  <separator name="general" >
   <i type="string" name="SYSTEM">hex-FASnI3</i>
   <i type="logical" name="LCOMPAT"> F  </i>
  </separator>
  <separator name="electronic" >
   <i type="string" name="PREC">accura</i>
   <i name="ENMAX">   1000.00000000</i>
   <i name="ENAUG">    644.87300000</i>
   <i name="EDIFF">      0.00000500</i>
   <i type="int" name="IALGO">    58</i>
   <i type="int" name="IWAVPR">    11</i>
   <i type="int" name="NBANDS">   120</i>
   <i type="int" name="NBANDSLOW">    -1</i>
   <i type="int" name="NBANDSHIGH">    -1</i>
   <i name="NELECT">    176.00000000</i>
   <i type="int" name="TURBO">     0</i>
   <i type="int" name="IRESTART">     0</i>
   <i type="int" name="NREBOOT">     0</i>
   <i type="int" name="NMIN">     0</i>
   <i name="EREF">      0.00000000</i>
   <separator name="electronic smearing" >
    <i type="int" name="ISMEAR">     0</i>
    <i name="SIGMA">      0.05000000</i>
    <i name="KSPACING">      0.50000000</i>
    <i type="logical" name="KGAMMA"> T  </i>
    <i type="logical" name="KBLOWUP"> T  </i>
   </separator>
   <separator name="electronic projectors" >
    <i type="logical" name="LREAL"> F  </i>
    <v name="ROPT">      0.00000000      0.00000000      0.00000000      0.00000000      0.00000000</v>
    <i type="int" name="LMAXPAW">  -100</i>
    <i type="int" name="LMAXMIX">     2</i>
    <i type="logical" name="NLSPLINE"> F  </i>
   </separator>
   <separator name="electronic startup" >
    <i type="int" name="ISTART">     0</i>
    <i type="int" name="ICHARG">     2</i>
    <i type="int" name="INIWAV">     1</i>
   </separator>
   <separator name="electronic spin" >
    <i type="int" name="ISPIN">     1</i>
    <i type="logical" name="LNONCOLLINEAR"> F  </i>
    <v name="MAGMOM">      1.00000000      1.00000000      1.00000000      1.00000000      1.00000000      1.00000000      1.00000000      1.00000000      1.00000000      1.00000000      1.00000000      1.00000000      1.00000000      1.00000000      1.00000000      1.00000000      1.00000000      1.00000000      1.00000000      1.00000000
      1.00000000      1.00000000      1.00000000      1.00000000      1.00000000      1.00000000      1.00000000      1.00000000      1.00000000      1.00000000      1.00000000      1.00000000      1.00000000      1.00000000      1.00000000      1.00000000      1.00000000      1.00000000      1.00000000      1.00000000
      1.00000000      1.00000000      1.00000000      1.00000000      1.00000000      1.00000000      1.00000000      1.00000000</v>
    <i name="NUPDOWN">     -1.00000000</i>
    <i type="logical" name="LSORBIT"> F  </i>
    <v name="SAXIS">      0.00000000      0.00000000      1.00000000</v>
    <i type="logical" name="LSPIRAL"> F  </i>
    <v name="QSPIRAL">      0.00000000      0.00000000      0.00000000</v>
    <i type="logical" name="LZEROZ"> F  </i>
   </separator>
   <separator name="electronic exchange-correlation" >
    <i type="logical" name="LASPH"> T  </i>
    <i type="logical" name="LMETAGGA"> F  </i>
   </separator>
   <separator name="electronic convergence" >
    <i type="int" name="NELM">   200</i>
    <i type="int" name="NELMDL">    -5</i>
    <i type="int" name="NELMIN">     8</i>
    <i name="ENINI">   1000.00000000</i>
    <separator name="electronic convergence detail" >
     <i type="logical" name="LDIAG"> T  </i>
     <i type="logical" name="LSUBROT"> F  </i>
     <i name="WEIMIN">      0.00100000</i>
     <i name="EBREAK">      0.00000001</i>
     <i name="DEPER">      0.30000000</i>
     <i type="int" name="NRMM">     4</i>
     <i name="TIME">      0.40000000</i>
    </separator>
   </separator>
   <separator name="electronic mixer" >
    <i name="AMIX">      0.40000000</i>
    <i name="BMIX">      1.00000000</i>
    <i name="AMIN">      0.10000000</i>
    <i name="AMIX_MAG">      1.60000000</i>
    <i name="BMIX_MAG">      1.00000000</i>
    <separator name="electronic mixer details" >
     <i type="int" name="IMIX">     4</i>
     <i type="logical" name="MIXFIRST"> F  </i>
     <i type="int" name="MAXMIX">   -45</i>
     <i name="WC">    100.00000000</i>
     <i type="int" name="INIMIX">     1</i>
     <i type="int" name="MIXPRE">     1</i>
     <i type="int" name="MREMOVE">     5</i>
    </separator>
   </separator>
   <separator name="electronic dipolcorrection" >
    <i type="logical" name="LDIPOL"> F  </i>
    <i type="logical" name="LMONO"> F  </i>
    <i type="int" name="IDIPOL">     0</i>
    <i name="EPSILON">      1.00000000</i>
    <v name="DIPOL">   -100.00000000   -100.00000000   -100.00000000</v>
    <i name="EFIELD">      0.00000000</i>
   </separator>
  </separator>
  <separator name="grids" >
   <i type="int" name="NGX">   160</i>
   <i type="int" name="NGY">    90</i>
   <i type="int" name="NGZ">    84</i>
   <i type="int" name="NGXF">   320</i>
   <i type="int" name="NGYF">   180</i>
   <i type="int" name="NGZF">   168</i>
   <i type="logical" name="ADDGRID"> F  </i>
  </separator>
  <separator name="ionic" >
   <i type="int" name="NSW">  1000</i>
   <i type="int" name="IBRION">     2</i>
   <i type="int" name="MDALGO">     0</i>
   <i type="int" name="ISIF">     3</i>
   <i name="PSTRESS">      0.00000000</i>
   <i name="EDIFFG">     -0.01000000</i>
   <i type="int" name="NFREE">     1</i>
   <i name="POTIM">      0.50000000</i>
   <i name="SMASS">     -3.00000000</i>
   <i name="SCALEE">      1.00000000</i>
  </separator>
  <separator name="ionic md" >
   <i name="TEBEG">      0.00010000</i>
   <i name="TEEND">      0.00010000</i>
   <i type="int" name="NBLOCK">     1</i>
   <i type="int" name="KBLOCK">  1000</i>
   <i type="int" name="NPACO">   256</i>
   <i name="APACO">     10.00000000</i>
  </separator>
  <separator name="symmetry" >
   <i type="int" name="ISYM">     0</i>
   <i name="SYMPREC">      0.00001000</i>
  </separator>
  <separator name="dos" >
   <i type="int" name="LORBIT">     0</i>
   <v name="RWIGS">     -1.00000000     -1.00000000     -1.00000000     -1.00000000     -1.00000000</v>
   <i type="int" name="NEDOS">   301</i>
   <i name="EMIN">     10.00000000</i>
   <i name="EMAX">    -10.00000000</i>
   <i name="EFERMI">      0.00000000</i>
  </separator>
  <separator name="writing" >
   <i type="int" name="NWRITE">     2</i>
   <i type="logical" name="LWAVE"> F  </i>
   <i type="logical" name="LDOWNSAMPLE"> F  </i>
   <i type="logical" name="LCHARG"> F  </i>
   <i type="logical" name="LPARD"> F  </i>
   <i type="logical" name="LVTOT"> F  </i>
   <i type="logical" name="LVHAR"> F  </i>
   <i type="logical" name="LELF"> F  </i>
   <i type="logical" name="LOPTICS"> F  </i>
   <v name="STM">      0.00000000      0.00000000      0.00000000      0.00000000      0.00000000      0.00000000      0.00000000</v>
  </separator>
  <separator name="performance" >
   <i type="int" name="NPAR">     8</i>
   <i type="int" name="NSIM">     4</i>
   <i type="int" name="NBLK">    -1</i>
   <i type="logical" name="LPLANE"> T  </i>
   <i type="logical" name="LSCALAPACK"> T  </i>
   <i type="logical" name="LSCAAWARE"> F  </i>
   <i type="logical" name="LSCALU"> F  </i>
   <i type="logical" name="LASYNC"> F  </i>
   <i type="logical" name="LORBITALREAL"> F  </i>
  </separator>
  <separator name="miscellaneous" >
   <i type="int" name="IDIOT">     3</i>
   <i type="int" name="PHON_NSTRUCT">    -1</i>
   <i type="logical" name="LMUSIC"> F  </i>
   <v name="POMASS">     12.01100000      1.00000000    126.90400000     14.00100000    118.71000000</v>
   <v name="DARWINR">      0.00000000      0.00000000      0.00000000      0.00000000      0.00000000</v>
   <v name="DARWINV">      1.00000000      1.00000000      1.00000000      1.00000000      1.00000000</v>
   <i type="logical" name="LCORR"> T  </i>
  </separator>
  <i type="logical" name="GGA_COMPAT"> T  </i>
  <i type="logical" name="LBERRY"> F  </i>
  <i type="int" name="ICORELEVEL">     0</i>
  <i type="logical" name="LDAU"> F  </i>
  <i type="int" name="I_CONSTRAINED_M">     0</i>
  <separator name="electronic exchange-correlation" >
   <i type="string" name="GGA">MK</i>
   <i type="int" name="VOSKOWN">     0</i>
   <i type="logical" name="LHFCALC"> F  </i>
   <i type="string" name="PRECFOCK"></i>
   <i type="logical" name="LSYMGRAD"> F  </i>
   <i type="logical" name="LHFONE"> F  </i>
   <i type="logical" name="LRHFCALC"> F  </i>
   <i type="logical" name="LTHOMAS"> F  </i>
   <i type="logical" name="LMODELHF"> F  </i>
   <i type="logical" name="LFOCKACE"> F  </i>
   <i name="ENCUT4O">     -1.00000000</i>
   <i type="int" name="EXXOEP">     0</i>
   <i type="int" name="FOURORBIT">     0</i>
   <i name="AEXX">      0.00000000</i>
   <i name="HFALPHA">      0.00000000</i>
   <i name="MCALPHA">      0.00000000</i>
   <i name="ALDAX">      1.00000000</i>
   <i name="AGGAX">      1.00000000</i>
   <i name="ALDAC">      1.00000000</i>
   <i name="AGGAC">      0.00000000</i>
   <i type="int" name="NKREDX">     1</i>
   <i type="int" name="NKREDY">     1</i>
   <i type="int" name="NKREDZ">     1</i>
   <i type="logical" name="SHIFTRED"> F  </i>
   <i type="logical" name="ODDONLY"> F  </i>
   <i type="logical" name="EVENONLY"> F  </i>
   <i type="int" name="LMAXFOCK">     0</i>
   <i type="int" name="NMAXFOCKAE">     0</i>
   <i type="logical" name="LFOCKAEDFT"> F  </i>
   <i name="HFSCREEN">      0.00000000</i>
   <i name="HFSCREENC">      0.00000000</i>
   <i type="int" name="NBANDSGWLOW">     0</i>
  </separator>
  <separator name="vdW DFT" >
   <i type="logical" name="LUSE_VDW"> T  </i>
   <i name="Zab_VDW">     -0.84910000</i>
   <i name="PARAM1">      0.12340000</i>
   <i name="PARAM2">      1.00000000</i>
   <i name="PARAM3">      0.00000000</i>
  </separator>
  <separator name="model GW" >
   <i type="int" name="MODEL_GW">     0</i>
   <i name="MODEL_EPS0">     12.34815250</i>
   <i name="MODEL_ALPHA">      1.00000000</i>
  </separator>
  <separator name="linear response parameters" >
   <i type="logical" name="LEPSILON"> F  </i>
   <i type="logical" name="LRPA"> F  </i>
   <i type="logical" name="LNABLA"> F  </i>
   <i type="logical" name="LVEL"> F  </i>
   <i name="CSHIFT">      0.10000000</i>
   <i name="OMEGAMAX">     -1.00000000</i>
   <i name="DEG_THRESHOLD">      0.00200000</i>
   <i name="RTIME">     -0.10000000</i>
   <i name="WPLASMAI">      0.00000000</i>
   <v name="DFIELD">      0.00000000      0.00000000      0.00000000</v>
   <v name="WPLASMA">      0.00000000      0.00000000      0.00000000      0.00000000      0.00000000      0.00000000      0.00000000      0.00000000      0.00000000</v>
  </separator>
  <separator name="orbital magnetization" >
   <i type="logical" name="NUCIND"> F  </i>
   <v name="MAGPOS">      0.00000000      0.00000000      0.00000000</v>
   <i type="logical" name="LNICSALL"> T  </i>
   <i type="logical" name="ORBITALMAG"> F  </i>
   <i type="logical" name="LMAGBLOCH"> F  </i>
   <i type="logical" name="LCHIMAG"> F  </i>
   <i type="logical" name="LGAUGE"> T  </i>
   <i type="int" name="MAGATOM">     0</i>
   <v name="MAGDIPOL">      0.00000000      0.00000000      0.00000000</v>
   <v name="AVECCONST">      0.00000000      0.00000000      0.00000000</v>
  </separator>
  <separator name="response functions" >
   <i type="logical" name="LFINITE_TEMPERATURE"> F  </i>
   <i type="logical" name="LADDER"> F  </i>
   <i type="logical" name="LRPAFORCE"> F  </i>
   <i type="logical" name="LFXC"> F  </i>
   <i type="logical" name="LHARTREE"> T  </i>
   <i type="int" name="IBSE">     0</i>
   <v type="int" name="KPOINT">    -1     0     0     0</v>
   <i type="logical" name="LTCTC"> F  </i>
   <i type="logical" name="LTCTE"> F  </i>
   <i type="logical" name="LTETE"> F  </i>
   <i type="logical" name="LTRIPLET"> F  </i>
   <i type="logical" name="LFXCEPS"> F  </i>
   <i type="logical" name="LFXHEG"> F  </i>
   <i type="int" name="NATURALO">     2</i>
   <i type="logical" name="LHOLEGF"> F  </i>
   <i type="logical" name="L2ORDER"> F  </i>
   <i type="logical" name="LDMP1"> F  </i>
   <i type="logical" name="LMP2LT"> F  </i>
   <i type="logical" name="LSMP2LT"> F  </i>
   <i type="logical" name="LGWLF"> F  </i>
   <i name="ENCUTGW">     -2.00000000</i>
   <i name="ENCUTGWSOFT">     -2.00000000</i>
   <i name="ENCUTLF">     -1.00000000</i>
   <i type="logical" name="LESF_SPLINES"> F  </i>
   <i type="int" name="LMAXMP2">    -1</i>
   <i name="SCISSOR">      0.00000000</i>
   <i type="int" name="NOMEGA">     0</i>
   <i type="int" name="NOMEGAR">     0</i>
   <i type="int" name="NBANDSGW">    -1</i>
   <i type="int" name="NBANDSO">    -1</i>
   <i type="int" name="NBANDSV">    -1</i>
   <i type="int" name="NELMGW">     1</i>
   <i type="int" name="NELMHF">     1</i>
   <i type="int" name="DIM">     3</i>
   <i type="int" name="IESPILON">     4</i>
   <i type="int" name="ANTIRES">     0</i>
   <i name="OMEGAMAX">    -30.00000000</i>
   <i name="OMEGAMIN">    -30.00000000</i>
   <i name="OMEGATL">   -200.00000000</i>
   <i type="int" name="OMEGAGRID">     0</i>
   <i name="CSHIFT">     -0.10000000</i>
   <i type="logical" name="LSELFENERGY"> F  </i>
   <i type="logical" name="LSPECTRAL"> F  </i>
   <i type="logical" name="LSPECTRALGW"> F  </i>
   <i type="logical" name="LSINGLES"> F  </i>
   <i type="logical" name="LFERMIGW"> F  </i>
   <i type="logical" name="ODDONLYGW"> F  </i>
   <i type="logical" name="EVENONLYGW"> F  </i>
   <i type="int" name="NKREDLFX">     1</i>
   <i type="int" name="NKREDLFY">     1</i>
   <i type="int" name="NKREDLFZ">     1</i>
   <i type="int" name="MAXMEM">  2800</i>
   <i type="int" name="TELESCOPE">     0</i>
   <i type="int" name="NTAUPAR">    -1</i>
   <i type="int" name="NOMEGAPAR">    -1</i>
   <i name="DAMP_NEWTON">      0.80000001</i>
   <i name="LAMBDA">      1.00000000</i>
  </separator>
  <separator name="External order field" >
   <i name="OFIELD_KAPPA">      0.00000000</i>
   <v name="OFIELD_K">      0.00000000      0.00000000      0.00000000</v>
   <i name="OFIELD_Q6_NEAR">      0.00000000</i>
   <i name="OFIELD_Q6_FAR">      0.00000000</i>
   <i name="OFIELD_A">      0.00000000</i>
  </separator>
  <separator name="optional k-points parameters" >
   <i type="int" name="KPOINTS_OPT_MODE">     1</i>
   <i type="logical" name="LKPOINTS_OPT"> F  </i>
  </separator>
 </parameters>
 <atominfo>
  <atoms>      48 </atoms>
  <types>       5 </types>
  <array name="atoms" >
   <dimension dim="1">ion</dimension>
   <field type="string">element</field>
   <field type="int">atomtype</field>
   <set>
    <rc><c>C </c><c>   1</c></rc>
    <rc><c>C </c><c>   1</c></rc>
    <rc><c>C </c><c>   1</c></rc>
    <rc><c>C </c><c>   1</c></rc>
    <rc><c>H </c><c>   2</c></rc>
    <rc><c>H </c><c>   2</c></rc>
    <rc><c>H </c><c>   2</c></rc>
    <rc><c>H </c><c>   2</c></rc>
    <rc><c>H </c><c>   2</c></rc>
    <rc><c>H </c><c>   2</c></rc>
    <rc><c>H </c><c>   2</c></rc>
    <rc><c>H </c><c>   2</c></rc>
    <rc><c>H </c><c>   2</c></rc>
    <rc><c>H </c><c>   2</c></rc>
    <rc><c>H </c><c>   2</c></rc>
    <rc><c>H </c><c>   2</c></rc>
    <rc><c>H </c><c>   2</c></rc>
    <rc><c>H </c><c>   2</c></rc>
    <rc><c>H </c><c>   2</c></rc>
    <rc><c>H </c><c>   2</c></rc>
    <rc><c>H </c><c>   2</c></rc>
    <rc><c>H </c><c>   2</c></rc>
    <rc><c>H </c><c>   2</c></rc>
    <rc><c>H </c><c>   2</c></rc>
    <rc><c>I </c><c>   3</c></rc>
    <rc><c>I </c><c>   3</c></rc>
    <rc><c>I </c><c>   3</c></rc>
    <rc><c>I </c><c>   3</c></rc>
    <rc><c>I </c><c>   3</c></rc>
    <rc><c>I </c><c>   3</c></rc>
    <rc><c>I </c><c>   3</c></rc>
    <rc><c>I </c><c>   3</c></rc>
    <rc><c>I </c><c>   3</c></rc>
    <rc><c>I </c><c>   3</c></rc>
    <rc><c>I </c><c>   3</c></rc>
    <rc><c>I </c><c>   3</c></rc>
    <rc><c>N </c><c>   4</c></rc>
    <rc><c>N </c><c>   4</c></rc>
    <rc><c>N </c><c>   4</c></rc>
    <rc><c>N </c><c>   4</c></rc>
    <rc><c>N </c><c>   4</c></rc>
    <rc><c>N </c><c>   4</c></rc>
    <rc><c>N </c><c>   4</c></rc>
    <rc><c>N </c><c>   4</c></rc>
    <rc><c>Sn</c><c>   5</c></rc>
    <rc><c>Sn</c><c>   5</c></rc>
    <rc><c>Sn</c><c>   5</c></rc>
    <rc><c>Sn</c><c>   5</c></rc>
   </set>
  </array>
  <array name="atomtypes" >
   <dimension dim="1">type</dimension>
   <field type="int">atomspertype</field>
   <field type="string">element</field>
   <field>mass</field>
   <field>valence</field>
   <field type="string">pseudopotential</field>
   <set>
    <rc><c>   4</c><c>C </c><c>     12.01100000</c><c>      4.00000000</c><c>  PAW_PBE C 08Apr2002                   </c></rc>
    <rc><c>  20</c><c>H </c><c>      1.00000000</c><c>      1.00000000</c><c>  PAW_PBE H 15Jun2001                   </c></rc>
    <rc><c>  12</c><c>I </c><c>    126.90400000</c><c>      7.00000000</c><c>  PAW_PBE I 08Apr2002                   </c></rc>
    <rc><c>   8</c><c>N </c><c>     14.00100000</c><c>      5.00000000</c><c>  PAW_PBE N 08Apr2002                   </c></rc>
    <rc><c>   4</c><c>Sn</c><c>    118.71000000</c><c>      4.00000000</c><c>  PAW_PBE Sn 08Apr2002                  </c></rc>
   </set>
  </array>
 </atominfo>
 <structure name="initialpos" >
  <crystal>
   <varray name="basis" >
    <v>      14.59602153      -0.01225386       0.02498403 </v>
    <v>      -0.00585429       8.60983114      -0.11177745 </v>
    <v>       0.01729993      -0.10595904       7.86213873 </v>
   </varray>
   <i name="volume">    987.85219978 </i>
   <varray name="rec_basis" >
    <v>       0.06851211       0.00004464      -0.00015015 </v>
    <v>       0.00009485       0.11616668       0.00156538 </v>
    <v>      -0.00021637       0.00165142       0.12721459 </v>
   </varray>
  </crystal>
  <varray name="positions" >
   <v>       0.66171080       0.53133152       0.31043424 </v>
   <v>       0.32092794       0.46329473       0.79364960 </v>
   <v>       0.84157375       0.06670799       0.75819252 </v>
   <v>       0.17840279       0.02468392       0.20423763 </v>
   <v>       0.67540700       0.45670501       0.06013395 </v>
   <v>       0.65769325       0.29221527       0.31940117 </v>
   <v>       0.64292410       0.39366556       0.51323116 </v>
   <v>       0.67776577       0.65824318       0.10043528 </v>
   <v>       0.65775103       0.63703383       0.39080860 </v>
   <v>       0.36198129       0.58480063       0.58306749 </v>
   <v>       0.44604797       0.55680395       0.85855729 </v>
   <v>       0.39292333       0.44080218       0.01159022 </v>
   <v>       0.25663775       0.49060368       0.56800050 </v>
   <v>       0.26483928       0.39087858       0.83988944 </v>
   <v>       0.83904542       0.83817284       0.82887480 </v>
   <v>       0.85512513       0.93974488       0.53298757 </v>
   <v>       0.85391810       0.14044768       0.51559999 </v>
   <v>       0.83281608       0.97957510       0.99378847 </v>
   <v>       0.83875426       0.18600666       0.80956405 </v>
   <v>       0.13267537       0.94525892       0.43516536 </v>
   <v>       0.18020117       0.78598196       0.17440687 </v>
   <v>       0.21632836       0.89346839       0.99951861 </v>
   <v>       0.14135440       0.14628765       0.41784059 </v>
   <v>       0.19344254       0.13194018       0.13771378 </v>
   <v>       0.60350347       0.24026415       0.81530885 </v>
   <v>       0.41738816       0.74450304       0.29422371 </v>
   <v>       0.93026122       0.77571890       0.25538738 </v>
   <v>       0.07892483       0.25406207       0.74537327 </v>
   <v>       0.32964538       0.01778630       0.76115690 </v>
   <v>       0.67188205       0.97772220       0.25939331 </v>
   <v>       0.17124063       0.47857198       0.23399668 </v>
   <v>       0.82768648       0.53267514       0.73384011 </v>
   <v>       0.41463814       0.24549839       0.27169559 </v>
   <v>       0.58093621       0.73609689       0.75121213 </v>
   <v>       0.08734315       0.75699047       0.71052912 </v>
   <v>       0.89458677       0.27328962       0.19840717 </v>
   <v>       0.65403217       0.39705513       0.38469403 </v>
   <v>       0.67408408       0.54844398       0.14622266 </v>
   <v>       0.39021676       0.49245610       0.89572295 </v>
   <v>       0.31359799       0.51585798       0.63866062 </v>
   <v>       0.84857699       0.04671643       0.59223116 </v>
   <v>       0.83749589       0.95341463       0.86659470 </v>
   <v>       0.19062477       0.89221530       0.12085729 </v>
   <v>       0.14897300       0.03855538       0.36217012 </v>
   <v>       0.49652555       0.99679655       0.02175490 </v>
   <v>       0.50167728       0.99680583       0.52341117 </v>
   <v>       0.99659258       0.50910933       0.48161156 </v>
   <v>       0.99786504       0.51320851       0.98192029 </v>
  </varray>
 </structure>
 <calculation>
  <scstep>
   <time name="total">   11.34   11.48</time>
   <energy>
    <i name="alphaZ">    116.96745598 </i>
    <i name="ewald">  -4681.09316738 </i>
    <i name="hartreedc">  -2068.20220644 </i>
    <i name="XCdc">   -375.69742240 </i>
    <i name="pawpsdc">   6161.33813817 </i>
    <i name="pawaedc">  -5338.05185836 </i>
    <i name="eentropy">     -0.01845325 </i>
    <i name="bandstr">    448.16319256 </i>
    <i name="atom">   7160.47832104 </i>
    <i name="e_fr_energy">   1423.88399992 </i>
    <i name="e_wo_entrp">   1423.90245317 </i>
    <i name="e_0_energy">   1423.89322654 </i>
   </energy>
  </scstep>
  <scstep>
   <time name="total">    8.01    8.03</time>
   <energy>
    <i name="e_fr_energy">     18.14820317 </i>
    <i name="e_wo_entrp">     18.14820317 </i>
    <i name="e_0_energy">     18.14820317 </i>
   </energy>
  </scstep>
  <scstep>
   <time name="total">    8.04    8.06</time>
   <energy>
    <i name="e_fr_energy">   -178.19708363 </i>
    <i name="e_wo_entrp">   -178.19708363 </i>
    <i name="e_0_energy">   -178.19708363 </i>
   </energy>
  </scstep>
  <scstep>
   <time name="total">    7.63    7.64</time>
   <energy>
    <i name="e_fr_energy">   -184.36521243 </i>
    <i name="e_wo_entrp">   -184.36521243 </i>
    <i name="e_0_energy">   -184.36521243 </i>
   </energy>
  </scstep>
  <scstep>
   <time name="total">    9.15    9.16</time>
   <energy>
    <i name="e_fr_energy">   -184.54301329 </i>
    <i name="e_wo_entrp">   -184.54301329 </i>
    <i name="e_0_energy">   -184.54301329 </i>
   </energy>
  </scstep>
  <scstep>
   <time name="total">   12.95   12.96</time>
   <energy>
    <i name="e_fr_energy">   -155.47096255 </i>
    <i name="e_wo_entrp">   -155.47096255 </i>
    <i name="e_0_energy">   -155.47096255 </i>
   </energy>
  </scstep>
  <scstep>
   <time name="total">   12.93   12.93</time>
   <energy>
    <i name="e_fr_energy">   -169.49145099 </i>
    <i name="e_wo_entrp">   -169.49145099 </i>
    <i name="e_0_energy">   -169.49145099 </i>
   </energy>
  </scstep>
  <scstep>
   <time name="total">   12.93   12.97</time>
   <energy>
    <i name="e_fr_energy">   -171.04600747 </i>
    <i name="e_wo_entrp">   -171.04600747 </i>
    <i name="e_0_energy">   -171.04600747 </i>
   </energy>
  </scstep>
  <scstep>
   <time name="total">   12.91   12.92</time>
   <energy>
    <i name="e_fr_energy">   -171.51810160 </i>
    <i name="e_wo_entrp">   -171.51810160 </i>
    <i name="e_0_energy">   -171.51810160 </i>
   </energy>
  </scstep>
  <scstep>
   <time name="total">   12.92   12.93</time>
   <energy>
    <i name="e_fr_energy">   -171.65668317 </i>
    <i name="e_wo_entrp">   -171.65668317 </i>
    <i name="e_0_energy">   -171.65668317 </i>
   </energy>
  </scstep>
  <scstep>
   <time name="total">   12.91   12.93</time>
   <energy>
    <i name="e_fr_energy">   -171.70072670 </i>
    <i name="e_wo_entrp">   -171.70072670 </i>
    <i name="e_0_energy">   -171.70072670 </i>
   </energy>
  </scstep>
  <scstep>
   <time name="total">   12.94   12.94</time>
   <energy>
    <i name="e_fr_energy">   -171.71096593 </i>
    <i name="e_wo_entrp">   -171.71096593 </i>
    <i name="e_0_energy">   -171.71096593 </i>
   </energy>
  </scstep>
  <scstep>
   <time name="total">   12.92   12.94</time>
   <energy>
    <i name="e_fr_energy">   -171.71352173 </i>
    <i name="e_wo_entrp">   -171.71352173 </i>
    <i name="e_0_energy">   -171.71352173 </i>
   </energy>
  </scstep>
  <scstep>
   <time name="total">   12.93   12.94</time>
   <energy>
    <i name="e_fr_energy">   -171.71409301 </i>
    <i name="e_wo_entrp">   -171.71409301 </i>
    <i name="e_0_energy">   -171.71409301 </i>
   </energy>
  </scstep>
  <scstep>
   <time name="total">   12.91   12.92</time>
   <energy>
    <i name="e_fr_energy">   -171.71422304 </i>
    <i name="e_wo_entrp">   -171.71422304 </i>
    <i name="e_0_energy">   -171.71422304 </i>
   </energy>
  </scstep>
  <scstep>
   <time name="total">   12.92   12.93</time>
   <energy>
    <i name="e_fr_energy">   -171.71425472 </i>
    <i name="e_wo_entrp">   -171.71425472 </i>
    <i name="e_0_energy">   -171.71425472 </i>
   </energy>
  </scstep>
  <scstep>
   <time name="total">   12.93   12.95</time>
   <energy>
    <i name="e_fr_energy">   -171.71426319 </i>
    <i name="e_wo_entrp">   -171.71426319 </i>
    <i name="e_0_energy">   -171.71426319 </i>
   </energy>
  </scstep>
  <scstep>
   <time name="total">   14.04   14.05</time>
   <energy>
    <i name="alphaZ">    116.96745598 </i>
    <i name="ewald">  -4681.09316738 </i>
    <i name="hartreedc">  -2288.22873848 </i>
    <i name="XCdc">   -359.33868292 </i>
    <i name="pawpsdc">  11685.18972004 </i>
    <i name="pawaedc"> -10866.41642395 </i>
    <i name="eentropy">     -0.00000000 </i>
    <i name="bandstr">   -939.27275029 </i>
    <i name="atom">   7160.47832104 </i>
    <i name="e_fr_energy">   -171.71426597 </i>
    <i name="e_wo_entrp">   -171.71426597 </i>
    <i name="e_0_energy">   -171.71426597 </i>
   </energy>
  </scstep>
  <structure>
   <crystal>
    <varray name="basis" >
     <v>      14.59602153      -0.01225386       0.02498403 </v>
     <v>      -0.00585429       8.60983114      -0.11177745 </v>
     <v>       0.01729993      -0.10595904       7.86213873 </v>
    </varray>
    <i name="volume">    987.85219978 </i>
    <varray name="rec_basis" >
     <v>       0.06851211       0.00004464      -0.00015015 </v>
     <v>       0.00009485       0.11616668       0.00156538 </v>
     <v>      -0.00021637       0.00165142       0.12721459 </v>
    </varray>
   </crystal>
   <varray name="positions" >
    <v>       0.66171080       0.53133152       0.31043424 </v>
    <v>       0.32092794       0.46329473       0.79364960 </v>
    <v>       0.84157375       0.06670799       0.75819252 </v>
    <v>       0.17840279       0.02468392       0.20423763 </v>
    <v>       0.67540700       0.45670501       0.06013395 </v>
    <v>       0.65769325       0.29221527       0.31940117 </v>
    <v>       0.64292410       0.39366556       0.51323116 </v>
    <v>       0.67776577       0.65824318       0.10043528 </v>
    <v>       0.65775103       0.63703383       0.39080860 </v>
    <v>       0.36198129       0.58480063       0.58306749 </v>
    <v>       0.44604797       0.55680395       0.85855729 </v>
    <v>       0.39292333       0.44080218       0.01159022 </v>
    <v>       0.25663775       0.49060368       0.56800050 </v>
    <v>       0.26483928       0.39087858       0.83988944 </v>
    <v>       0.83904542       0.83817284       0.82887480 </v>
    <v>       0.85512513       0.93974488       0.53298757 </v>
    <v>       0.85391810       0.14044768       0.51559999 </v>
    <v>       0.83281608       0.97957510       0.99378847 </v>
    <v>       0.83875426       0.18600666       0.80956405 </v>
    <v>       0.13267537       0.94525892       0.43516536 </v>
    <v>       0.18020117       0.78598196       0.17440687 </v>
    <v>       0.21632836       0.89346839       0.99951861 </v>
    <v>       0.14135440       0.14628765       0.41784059 </v>
    <v>       0.19344254       0.13194018       0.13771378 </v>
    <v>       0.60350347       0.24026415       0.81530885 </v>
    <v>       0.41738816       0.74450304       0.29422371 </v>
    <v>       0.93026122       0.77571890       0.25538738 </v>
    <v>       0.07892483       0.25406207       0.74537327 </v>
    <v>       0.32964538       0.01778630       0.76115690 </v>
    <v>       0.67188205       0.97772220       0.25939331 </v>
    <v>       0.17124063       0.47857198       0.23399668 </v>
    <v>       0.82768648       0.53267514       0.73384011 </v>
    <v>       0.41463814       0.24549839       0.27169559 </v>
    <v>       0.58093621       0.73609689       0.75121213 </v>
    <v>       0.08734315       0.75699047       0.71052912 </v>
    <v>       0.89458677       0.27328962       0.19840717 </v>
    <v>       0.65403217       0.39705513       0.38469403 </v>
    <v>       0.67408408       0.54844398       0.14622266 </v>
    <v>       0.39021676       0.49245610       0.89572295 </v>
    <v>       0.31359799       0.51585798       0.63866062 </v>
    <v>       0.84857699       0.04671643       0.59223116 </v>
    <v>       0.83749589       0.95341463       0.86659470 </v>
    <v>       0.19062477       0.89221530       0.12085729 </v>
    <v>       0.14897300       0.03855538       0.36217012 </v>
    <v>       0.49652555       0.99679655       0.02175490 </v>
    <v>       0.50167728       0.99680583       0.52341117 </v>
    <v>       0.99659258       0.50910933       0.48161156 </v>
    <v>       0.99786504       0.51320851       0.98192029 </v>
   </varray>
  </structure>
  <varray name="forces" >
   <v>      -0.00083732      -0.00880466      -0.00806276 </v>
   <v>       0.00583053       0.00424844      -0.00907428 </v>
   <v>       0.00008243      -0.00812971      -0.00627608 </v>
   <v>      -0.00004914       0.00109427       0.00257356 </v>
   <v>      -0.00393705       0.00939925       0.01111700 </v>
   <v>      -0.00060452      -0.00077707       0.00039119 </v>
   <v>       0.00215376      -0.00042099      -0.00597084 </v>
   <v>      -0.00270601       0.00008245       0.00023814 </v>
   <v>       0.00106348      -0.00386161      -0.00324855 </v>
   <v>       0.00301835       0.00097050       0.00282758 </v>
   <v>      -0.00976406      -0.00297691       0.00022491 </v>
   <v>      -0.00236791      -0.00416501       0.00757646 </v>
   <v>      -0.00356125      -0.00167345       0.00352595 </v>
   <v>      -0.00399856       0.00084824      -0.00074979 </v>
   <v>       0.00005714       0.00958935       0.00265707 </v>
   <v>      -0.00089501      -0.00261912       0.00479790 </v>
   <v>       0.00027418       0.00081785      -0.00086134 </v>
   <v>      -0.00103614       0.00573844       0.01154895 </v>
   <v>      -0.00022845       0.00436377      -0.00278317 </v>
   <v>       0.00126552      -0.00036867      -0.00010644 </v>
   <v>      -0.00108765      -0.00575958       0.00116656 </v>
   <v>       0.00611150       0.00084857      -0.01243087 </v>
   <v>      -0.00101817       0.01380091       0.00280097 </v>
   <v>      -0.00035610       0.00194987      -0.00393191 </v>
   <v>      -0.00275825       0.00132806      -0.00216603 </v>
   <v>       0.00233917      -0.00034749       0.00295373 </v>
   <v>       0.00248294       0.00077673      -0.00150850 </v>
   <v>      -0.00198951      -0.00107289      -0.00241728 </v>
   <v>       0.00109378      -0.00061912      -0.00103854 </v>
   <v>       0.00255135       0.00106869       0.00012212 </v>
   <v>      -0.00036657       0.00006980       0.00009522 </v>
   <v>       0.00462562       0.00252949       0.00072595 </v>
   <v>      -0.00060097       0.00073498      -0.00140481 </v>
   <v>       0.00146385      -0.00164330       0.00380073 </v>
   <v>       0.00401637       0.00114511      -0.00025687 </v>
   <v>       0.00172146      -0.00163297       0.00183861 </v>
   <v>       0.00031189       0.01201805       0.00736990 </v>
   <v>      -0.00174085      -0.00242710      -0.00269654 </v>
   <v>       0.00888489       0.00931170      -0.00461264 </v>
   <v>      -0.01071490      -0.00401904       0.00074454 </v>
   <v>       0.00089717       0.00019844       0.00336499 </v>
   <v>      -0.00112603      -0.01186171      -0.01228380 </v>
   <v>      -0.00675383       0.00466358       0.01966205 </v>
   <v>       0.00440082      -0.02368511      -0.01323695 </v>
   <v>       0.00103763       0.00023052       0.00183778 </v>
   <v>      -0.00018181      -0.00109888      -0.00088082 </v>
   <v>       0.00048260       0.00111547       0.00274124 </v>
   <v>       0.00251360      -0.00097815      -0.00070431 </v>
  </varray>
  <varray name="stress" >
   <v>      -0.00622117      -0.00372819      -0.02334473 </v>
   <v>      -0.00372761      -0.04746366      -0.04236835 </v>
   <v>      -0.02334531      -0.04236742      -0.03602438 </v>
  </varray>
  <energy>
   <i name="e_fr_energy">   -171.71426597 </i>
   <i name="e_wo_entrp">   -171.71426597 </i>
   <i name="e_0_energy">   -171.71426597 </i>
  </energy>
  <time name="totalsc">  234.99  235.36</time>
 </calculation>
 <calculation>
  <scstep>
   <time name="total">   12.94   12.95</time>
   <energy>
    <i name="alphaZ">    116.97395874 </i>
    <i name="ewald">  -4680.83070118 </i>
    <i name="hartreedc">  -2288.34105818 </i>
    <i name="XCdc">   -359.33230058 </i>
    <i name="pawpsdc">  11684.20318991 </i>
    <i name="pawaedc"> -10865.43211101 </i>
    <i name="eentropy">     -0.00000000 </i>
    <i name="bandstr">   -939.43021333 </i>
    <i name="atom">   7160.47832104 </i>
    <i name="e_fr_energy">   -171.71091459 </i>
    <i name="e_wo_entrp">   -171.71091459 </i>
    <i name="e_0_energy">   -171.71091459 </i>
   </energy>
  </scstep>
  <scstep>
   <time name="total">   12.92   12.93</time>
   <energy>
    <i name="e_fr_energy">   -171.71334048 </i>
    <i name="e_wo_entrp">   -171.71334048 </i>
    <i name="e_0_energy">   -171.71334048 </i>
   </energy>
  </scstep>
  <scstep>
   <time name="total">   12.91   12.93</time>
   <energy>
    <i name="e_fr_energy">   -171.71394408 </i>
    <i name="e_wo_entrp">   -171.71394408 </i>
    <i name="e_0_energy">   -171.71394408 </i>
   </energy>
  </scstep>
  <scstep>
   <time name="total">   12.91   12.93</time>
   <energy>
    <i name="e_fr_energy">   -171.71403670 </i>
    <i name="e_wo_entrp">   -171.71403670 </i>
    <i name="e_0_energy">   -171.71403670 </i>
   </energy>
  </scstep>
  <scstep>
   <time name="total">   12.90   12.92</time>
   <energy>
    <i name="e_fr_energy">   -171.71405427 </i>
    <i name="e_wo_entrp">   -171.71405427 </i>
    <i name="e_0_energy">   -171.71405427 </i>
   </energy>
  </scstep>
  <scstep>
   <time name="total">   12.93   12.94</time>
   <energy>
    <i name="e_fr_energy">   -171.71405865 </i>
    <i name="e_wo_entrp">   -171.71405865 </i>
    <i name="e_0_energy">   -171.71405865 </i>
   </energy>
  </scstep>
  <scstep>
   <time name="total">   12.92   12.94</time>
   <energy>
    <i name="e_fr_energy">   -171.71406009 </i>
    <i name="e_wo_entrp">   -171.71406009 </i>
    <i name="e_0_energy">   -171.71406009 </i>
   </energy>
  </scstep>
  <scstep>
   <time name="total">   14.06   14.07</time>
   <energy>
    <i name="alphaZ">    116.97395874 </i>
    <i name="ewald">  -4680.83070118 </i>
    <i name="hartreedc">  -2288.54495641 </i>
    <i name="XCdc">   -359.33139204 </i>
    <i name="pawpsdc">  11688.01030294 </i>
    <i name="pawaedc"> -10869.23781983 </i>
    <i name="eentropy">     -0.00000000 </i>
    <i name="bandstr">   -939.23177376 </i>
    <i name="atom">   7160.47832104 </i>
    <i name="e_fr_energy">   -171.71406050 </i>
    <i name="e_wo_entrp">   -171.71406050 </i>
    <i name="e_0_energy">   -171.71406050 </i>
   </energy>
  </scstep>
  <structure>
   <crystal>
    <varray name="basis" >
     <v>      14.59596492      -0.01228787       0.02477264 </v>
     <v>      -0.00587254       8.60958085      -0.11200092 </v>
     <v>       0.01718637      -0.10616238       7.86196575 </v>
    </varray>
    <i name="volume">    987.79728355 </i>
    <varray name="rec_basis" >
     <v>       0.06851238       0.00004479      -0.00014916 </v>
     <v>       0.00009514       0.11617014       0.00156847 </v>
     <v>      -0.00021452       0.00165481       0.12721747 </v>
    </varray>
   </crystal>
   <varray name="positions" >
    <v>       0.66170807       0.53128156       0.31038407 </v>
    <v>       0.32094728       0.46331788       0.79359419 </v>
    <v>       0.84157405       0.06666196       0.75815336 </v>
    <v>       0.17840262       0.02469025       0.20425351 </v>
    <v>       0.67539392       0.45675850       0.06020296 </v>
    <v>       0.65769125       0.29221095       0.31940351 </v>
    <v>       0.64293126       0.39366276       0.51319446 </v>
    <v>       0.67775682       0.65824365       0.10043677 </v>
    <v>       0.65775456       0.63701195       0.39078835 </v>
    <v>       0.36199124       0.58480630       0.58308489 </v>
    <v>       0.44601568       0.55678724       0.85855853 </v>
    <v>       0.39291543       0.44077940       0.01163641 </v>
    <v>       0.25662595       0.49059455       0.56802205 </v>
    <v>       0.26482608       0.39088326       0.83988495 </v>
    <v>       0.83904561       0.83822678       0.82889187 </v>
    <v>       0.85512213       0.93973056       0.53301682 </v>
    <v>       0.85391901       0.14045220       0.51559477 </v>
    <v>       0.83281258       0.97960812       0.99385982 </v>
    <v>       0.83875353       0.18603091       0.80954732 </v>
    <v>       0.13267955       0.94525685       0.43516466 </v>
    <v>       0.18019755       0.78594977       0.17441358 </v>
    <v>       0.21634866       0.89347223       0.99944233 </v>
    <v>       0.14135105       0.14636520       0.41785889 </v>
    <v>       0.19344140       0.13195080       0.13768980 </v>
    <v>       0.60349437       0.24027142       0.81529569 </v>
    <v>       0.41739587       0.74450133       0.29424178 </v>
    <v>       0.93026944       0.77572315       0.25537815 </v>
    <v>       0.07891827       0.25405587       0.74535837 </v>
    <v>       0.32964900       0.01778276       0.76115047 </v>
    <v>       0.67189048       0.97772821       0.25939411 </v>
    <v>       0.17123942       0.47857238       0.23399727 </v>
    <v>       0.82770177       0.53268939       0.73384472 </v>
    <v>       0.41463616       0.24550240       0.27168703 </v>
    <v>       0.58094101       0.73608798       0.75123531 </v>
    <v>       0.08735643       0.75699689       0.71052759 </v>
    <v>       0.89459245       0.27328061       0.19841830 </v>
    <v>       0.65403318       0.39712304       0.38474022 </v>
    <v>       0.67407834       0.54843017       0.14620594 </v>
    <v>       0.39024618       0.49250797       0.89569529 </v>
    <v>       0.31356256       0.51583546       0.63866498 </v>
    <v>       0.84857993       0.04671780       0.59225181 </v>
    <v>       0.83749223       0.95334722       0.86651838 </v>
    <v>       0.19060232       0.89224289       0.12097840 </v>
    <v>       0.14898759       0.03842166       0.36208695 </v>
    <v>       0.49652897       0.99679799       0.02176618 </v>
    <v>       0.50167668       0.99679960       0.52340568 </v>
    <v>       0.99659416       0.50911579       0.48162847 </v>
    <v>       0.99787335       0.51320298       0.98191586 </v>
   </varray>
  </structure>
  <varray name="forces" >
   <v>      -0.00092439       0.03426229       0.01260941 </v>
   <v>      -0.00805303      -0.01601416       0.02783960 </v>
   <v>      -0.00258851       0.01729177       0.01949174 </v>
   <v>       0.00628344       0.00829134      -0.01771045 </v>
   <v>      -0.00245980      -0.01643862      -0.01440466 </v>
   <v>      -0.00187357       0.01828758       0.01364292 </v>
   <v>      -0.00160667       0.00456287       0.01945357 </v>
   <v>      -0.00287376      -0.00209115       0.00136214 </v>
   <v>       0.00149562      -0.00829176      -0.00956787 </v>
   <v>      -0.01429520      -0.01089550       0.00736788 </v>
   <v>       0.02318952       0.01815266      -0.00931373 </v>
   <v>      -0.00048912       0.01065204      -0.02003293 </v>
   <v>      -0.01710030      -0.00537340      -0.00519895 </v>
   <v>       0.01141357       0.01028303      -0.00487925 </v>
   <v>       0.00104083      -0.03485535      -0.01129557 </v>
   <v>      -0.00094907      -0.00069691       0.00294231 </v>
   <v>      -0.00013201      -0.00356518       0.00272077 </v>
   <v>       0.00216039      -0.00735131      -0.03787814 </v>
   <v>       0.00009744      -0.01386681      -0.00628414 </v>
   <v>      -0.00113233      -0.01998927       0.00452260 </v>
   <v>      -0.00265972      -0.00142478       0.00632323 </v>
   <v>      -0.01728110      -0.00062095       0.04746507 </v>
   <v>       0.00627507      -0.05706772      -0.02663584 </v>
   <v>      -0.00200623      -0.00211628       0.00131793 </v>
   <v>      -0.00202763       0.00094391      -0.00207882 </v>
   <v>       0.00253876      -0.00130835       0.00266662 </v>
   <v>       0.00135241       0.00100742      -0.00126718 </v>
   <v>      -0.00188940      -0.00203195      -0.00304706 </v>
   <v>       0.00050546      -0.00065399      -0.00045316 </v>
   <v>       0.00328574       0.00153115       0.00024810 </v>
   <v>      -0.00003264      -0.00056793       0.00012183 </v>
   <v>       0.00330269       0.00117452       0.00040531 </v>
   <v>      -0.00026622       0.00173895      -0.00125261 </v>
   <v>       0.00284183      -0.00071780       0.00276484 </v>
   <v>       0.00330357       0.00152272       0.00034169 </v>
   <v>       0.00056276      -0.00209102       0.00152286 </v>
   <v>       0.00472978      -0.04476580      -0.03052061 </v>
   <v>      -0.00095306       0.01945078       0.00723598 </v>
   <v>      -0.03353228      -0.02988157       0.02493889 </v>
   <v>       0.02648631       0.02427958      -0.01993257 </v>
   <v>       0.00352739      -0.00322985      -0.02884948 </v>
   <v>      -0.00624252       0.04607704       0.05922419 </v>
   <v>       0.02980928      -0.02691603      -0.08111019 </v>
   <v>      -0.01727574       0.09365485       0.06223048 </v>
   <v>       0.00172263       0.00007452       0.00087126 </v>
   <v>       0.00098768      -0.00116346       0.00015080 </v>
   <v>      -0.00010429       0.00122473       0.00224243 </v>
   <v>       0.00183643      -0.00047684      -0.00031123 </v>
  </varray>
  <varray name="stress" >
   <v>       0.01081616      -0.00550214      -0.03258857 </v>
   <v>      -0.00550219       0.00888782      -0.00008985 </v>
   <v>      -0.03258901      -0.00008945       0.08135171 </v>
  </varray>
  <energy>
   <i name="e_fr_energy">   -171.71406050 </i>
   <i name="e_wo_entrp">   -171.71406050 </i>
   <i name="e_0_energy">   -171.71406050 </i>
  </energy>
  <time name="totalsc">  126.19  126.32</time>
 </calculation>
 <calculation>
  <scstep>
   <time name="total">   12.95   12.96</time>
   <energy>
    <i name="alphaZ">    116.96902450 </i>
    <i name="ewald">  -4681.03007071 </i>
    <i name="hartreedc">  -2288.45958267 </i>
    <i name="XCdc">   -359.33626288 </i>
    <i name="pawpsdc">  11689.45446748 </i>
    <i name="pawaedc"> -10870.68029343 </i>
    <i name="eentropy">     -0.00000000 </i>
    <i name="bandstr">   -939.10808286 </i>
    <i name="atom">   7160.47832104 </i>
    <i name="e_fr_energy">   -171.71247953 </i>
    <i name="e_wo_entrp">   -171.71247953 </i>
    <i name="e_0_energy">   -171.71247953 </i>
   </energy>
  </scstep>
  <scstep>
   <time name="total">   12.92   12.95</time>
   <energy>
    <i name="e_fr_energy">   -171.71387659 </i>
    <i name="e_wo_entrp">   -171.71387659 </i>
    <i name="e_0_energy">   -171.71387659 </i>
   </energy>
  </scstep>
  <scstep>
   <time name="total">   12.94   12.94</time>
   <energy>
    <i name="e_fr_energy">   -171.71422415 </i>
    <i name="e_wo_entrp">   -171.71422415 </i>
    <i name="e_0_energy">   -171.71422415 </i>
   </energy>
  </scstep>
  <scstep>
   <time name="total">   12.94   12.96</time>
   <energy>
    <i name="e_fr_energy">   -171.71427707 </i>
    <i name="e_wo_entrp">   -171.71427707 </i>
    <i name="e_0_energy">   -171.71427707 </i>
   </energy>
  </scstep>
  <scstep>
   <time name="total">   12.93   12.95</time>
   <energy>
    <i name="e_fr_energy">   -171.71428714 </i>
    <i name="e_wo_entrp">   -171.71428714 </i>
    <i name="e_0_energy">   -171.71428714 </i>
   </energy>
  </scstep>
  <scstep>
   <time name="total">   12.92   12.93</time>
   <energy>
    <i name="e_fr_energy">   -171.71428954 </i>
    <i name="e_wo_entrp">   -171.71428954 </i>
    <i name="e_0_energy">   -171.71428954 </i>
   </energy>
  </scstep>
  <scstep>
   <time name="total">   12.94   12.95</time>
   <energy>
    <i name="e_fr_energy">   -171.71429029 </i>
    <i name="e_wo_entrp">   -171.71429029 </i>
    <i name="e_0_energy">   -171.71429029 </i>
   </energy>
  </scstep>
  <scstep>
   <time name="total">   14.04   14.06</time>
   <energy>
    <i name="alphaZ">    116.96902450 </i>
    <i name="ewald">  -4681.03007071 </i>
    <i name="hartreedc">  -2288.30593525 </i>
    <i name="XCdc">   -359.33690316 </i>
    <i name="pawpsdc">  11686.04495513 </i>
    <i name="pawaedc"> -10867.27191504 </i>
    <i name="eentropy">     -0.00000000 </i>
    <i name="bandstr">   -939.26176702 </i>
    <i name="atom">   7160.47832104 </i>
    <i name="e_fr_energy">   -171.71429051 </i>
    <i name="e_wo_entrp">   -171.71429051 </i>
    <i name="e_0_energy">   -171.71429051 </i>
   </energy>
  </scstep>
  <structure>
   <crystal>
    <varray name="basis" >
     <v>      14.59600787      -0.01226206       0.02493304 </v>
     <v>      -0.00585869       8.60977076      -0.11183135 </v>
     <v>       0.01727254      -0.10600809       7.86209701 </v>
    </varray>
    <i name="volume">    987.83895296 </i>
    <varray name="rec_basis" >
     <v>       0.06851218       0.00004467      -0.00014991 </v>
     <v>       0.00009492       0.11616752       0.00156613 </v>
     <v>      -0.00021592       0.00165224       0.12721528 </v>
    </varray>
   </crystal>
   <varray name="positions" >
    <v>       0.66171014       0.53131947       0.31042214 </v>
    <v>       0.32093260       0.46330032       0.79363623 </v>
    <v>       0.84157382       0.06669689       0.75818308 </v>
    <v>       0.17840275       0.02468545       0.20424146 </v>
    <v>       0.67540384       0.45671791       0.06015059 </v>
    <v>       0.65769277       0.29221423       0.31940174 </v>
    <v>       0.64292583       0.39366488       0.51322231 </v>
    <v>       0.67776361       0.65824330       0.10043564 </v>
    <v>       0.65775188       0.63702855       0.39080372 </v>
    <v>       0.36198369       0.58480200       0.58307169 </v>
    <v>       0.44604018       0.55679992       0.85855759 </v>
    <v>       0.39292142       0.44079669       0.01160136 </v>
    <v>       0.25663490       0.49060148       0.56800570 </v>
    <v>       0.26483610       0.39087971       0.83988836 </v>
    <v>       0.83904547       0.83818585       0.82887892 </v>
    <v>       0.85512441       0.93974142       0.53299462 </v>
    <v>       0.85391832       0.14044877       0.51559873 </v>
    <v>       0.83281523       0.97958306       0.99380568 </v>
    <v>       0.83875408       0.18601251       0.80956002 </v>
    <v>       0.13267638       0.94525842       0.43516519 </v>
    <v>       0.18020030       0.78597420       0.17440848 </v>
    <v>       0.21633326       0.89346931       0.99950021 </v>
    <v>       0.14135359       0.14630636       0.41784500 </v>
    <v>       0.19344227       0.13194274       0.13770799 </v>
    <v>       0.60350127       0.24026590       0.81530568 </v>
    <v>       0.41739002       0.74450263       0.29422807 </v>
    <v>       0.93026320       0.77571992       0.25538515 </v>
    <v>       0.07892325       0.25406057       0.74536968 </v>
    <v>       0.32964625       0.01778545       0.76115535 </v>
    <v>       0.67188408       0.97772365       0.25939350 </v>
    <v>       0.17124034       0.47857208       0.23399682 </v>
    <v>       0.82769017       0.53267858       0.73384122 </v>
    <v>       0.41463766       0.24549936       0.27169352 </v>
    <v>       0.58093737       0.73609474       0.75121772 </v>
    <v>       0.08734635       0.75699202       0.71052875 </v>
    <v>       0.89458814       0.27328745       0.19840985 </v>
    <v>       0.65403242       0.39707151       0.38470517 </v>
    <v>       0.67408270       0.54844065       0.14621863 </v>
    <v>       0.39022385       0.49246861       0.89571627 </v>
    <v>       0.31358944       0.51585255       0.63866167 </v>
    <v>       0.84857770       0.04671676       0.59223614 </v>
    <v>       0.83749501       0.95339837       0.86657629 </v>
    <v>       0.19061936       0.89222196       0.12088650 </v>
    <v>       0.14897652       0.03852313       0.36215006 </v>
    <v>       0.49652637       0.99679690       0.02175762 </v>
    <v>       0.50167713       0.99680433       0.52340984 </v>
    <v>       0.99659296       0.50911089       0.48161564 </v>
    <v>       0.99786704       0.51320717       0.98191922 </v>
   </varray>
  </structure>
  <varray name="forces" >
   <v>      -0.00089453       0.00180378      -0.00281583 </v>
   <v>       0.00235541      -0.00073109      -0.00003872 </v>
   <v>      -0.00045889      -0.00176463      -0.00013984 </v>
   <v>       0.00146659       0.00276675      -0.00225782 </v>
   <v>      -0.00358010       0.00325954       0.00499122 </v>
   <v>      -0.00090411       0.00381906       0.00360149 </v>
   <v>       0.00126175       0.00077863       0.00009489 </v>
   <v>      -0.00273509      -0.00046693       0.00052000 </v>
   <v>       0.00115762      -0.00495430      -0.00482609 </v>
   <v>      -0.00117960      -0.00191052       0.00390688 </v>
   <v>      -0.00193230       0.00203059      -0.00204156 </v>
   <v>      -0.00195493      -0.00057716       0.00082893 </v>
   <v>      -0.00677422      -0.00255327       0.00141281 </v>
   <v>      -0.00018622       0.00317934      -0.00174785 </v>
   <v>       0.00030085      -0.00106282      -0.00070014 </v>
   <v>      -0.00088437      -0.00208240       0.00435518 </v>
   <v>       0.00018715      -0.00032133       0.00001896 </v>
   <v>      -0.00025460       0.00260949      -0.00039206 </v>
   <v>      -0.00012919      -0.00009754      -0.00366041 </v>
   <v>       0.00070053      -0.00499015       0.00095257 </v>
   <v>      -0.00145554      -0.00464728       0.00236183 </v>
   <v>       0.00042622       0.00050232       0.00209681 </v>
   <v>       0.00074452      -0.00343266      -0.00436917 </v>
   <v>      -0.00076348       0.00092201      -0.00266026 </v>
   <v>      -0.00252730       0.00136008      -0.00228587 </v>
   <v>       0.00241795      -0.00076084       0.00305102 </v>
   <v>       0.00218995       0.00091281      -0.00127342 </v>
   <v>      -0.00198351      -0.00153766      -0.00267454 </v>
   <v>       0.00076928      -0.00066797      -0.00093974 </v>
   <v>       0.00289732       0.00117783       0.00023512 </v>
   <v>      -0.00020048      -0.00013905       0.00016490 </v>
   <v>       0.00421309       0.00212346       0.00049923 </v>
   <v>      -0.00067152       0.00112147      -0.00135287 </v>
   <v>       0.00174561      -0.00158721       0.00335659 </v>
   <v>       0.00385311       0.00145854      -0.00029736 </v>
   <v>       0.00136948      -0.00182823       0.00180821 </v>
   <v>       0.00142667      -0.00170580      -0.00154647 </v>
   <v>      -0.00151853       0.00277260      -0.00047733 </v>
   <v>      -0.00124426      -0.00023035       0.00264396 </v>
   <v>      -0.00168816       0.00286743      -0.00426777 </v>
   <v>       0.00176964      -0.00053438      -0.00457604 </v>
   <v>      -0.00238340       0.00202484       0.00511208 </v>
   <v>       0.00214912      -0.00302407      -0.00482545 </v>
   <v>      -0.00096714       0.00476123       0.00522200 </v>
   <v>       0.00113276       0.00018214       0.00158201 </v>
   <v>       0.00005075      -0.00119080      -0.00064453 </v>
   <v>       0.00033877       0.00120088       0.00259121 </v>
   <v>       0.00234734      -0.00083639      -0.00059679 </v>
  </varray>
  <varray name="stress" >
   <v>       0.00193277      -0.00255677      -0.02374854 </v>
   <v>      -0.00255644      -0.03127364      -0.03273762 </v>
   <v>      -0.02374894      -0.03273731      -0.00311467 </v>
  </varray>
  <energy>
   <i name="e_fr_energy">   -171.71429051 </i>
   <i name="e_wo_entrp">   -171.71429051 </i>
   <i name="e_0_energy">   -171.71429051 </i>
  </energy>
  <time name="totalsc">  120.09  120.20</time>
  <eigenvalues>
   <array>
    <dimension dim="1">band</dimension>
    <dimension dim="2">kpoint</dimension>
    <dimension dim="3">spin</dimension>
    <field>eigene</field>
    <field>occ</field>
    <set>
     <set comment="spin 1">
      <set comment="kpoint 1">
       <r>  -18.9109    1.0000 </r>
       <r>  -18.8765    1.0000 </r>
       <r>  -18.8688    1.0000 </r>
       <r>  -18.8445    1.0000 </r>
       <r>  -16.7032    1.0000 </r>
       <r>  -16.6601    1.0000 </r>
       <r>  -16.6566    1.0000 </r>
       <r>  -16.6171    1.0000 </r>
       <r>  -10.8459    1.0000 </r>
       <r>  -10.7629    1.0000 </r>
       <r>  -10.7201    1.0000 </r>
       <r>  -10.7040    1.0000 </r>
       <r>  -10.5458    1.0000 </r>
       <r>  -10.4813    1.0000 </r>
       <r>  -10.4143    1.0000 </r>
       <r>  -10.2654    1.0000 </r>
       <r>  -10.2251    1.0000 </r>
       <r>  -10.1973    1.0000 </r>
       <r>  -10.1674    1.0000 </r>
       <r>  -10.1552    1.0000 </r>
       <r>  -10.1135    1.0000 </r>
       <r>  -10.0381    1.0000 </r>
       <r>  -10.0061    1.0000 </r>
       <r>  -10.0004    1.0000 </r>
       <r>   -8.8105    1.0000 </r>
       <r>   -8.7620    1.0000 </r>
       <r>   -8.7566    1.0000 </r>
       <r>   -8.7167    1.0000 </r>
       <r>   -8.1378    1.0000 </r>
       <r>   -8.1124    1.0000 </r>
       <r>   -8.1014    1.0000 </r>
       <r>   -8.0574    1.0000 </r>
       <r>   -6.4648    1.0000 </r>
       <r>   -6.4428    1.0000 </r>
       <r>   -6.4213    1.0000 </r>
       <r>   -6.3995    1.0000 </r>
       <r>   -5.1017    1.0000 </r>
       <r>   -4.9651    1.0000 </r>
       <r>   -4.9483    1.0000 </r>
       <r>   -4.9370    1.0000 </r>
       <r>   -4.9000    1.0000 </r>
       <r>   -4.8358    1.0000 </r>
       <r>   -4.7747    1.0000 </r>
       <r>   -4.7529    1.0000 </r>
       <r>   -4.4135    1.0000 </r>
       <r>   -4.3583    1.0000 </r>
       <r>   -4.3471    1.0000 </r>
       <r>   -4.3377    1.0000 </r>
       <r>   -2.2085    1.0000 </r>
       <r>   -1.8186    1.0000 </r>
       <r>   -1.4154    1.0000 </r>
       <r>   -1.4094    1.0000 </r>
       <r>   -1.3547    1.0000 </r>
       <r>   -1.3225    1.0000 </r>
       <r>   -1.2694    1.0000 </r>
       <r>   -1.1715    1.0000 </r>
       <r>   -1.1065    1.0000 </r>
       <r>   -1.0632    1.0000 </r>
       <r>   -1.0015    1.0000 </r>
       <r>   -0.9179    1.0000 </r>
       <r>   -0.9030    1.0000 </r>
       <r>   -0.7771    1.0000 </r>
       <r>   -0.7354    1.0000 </r>
       <r>   -0.6529    1.0000 </r>
       <r>   -0.4796    1.0000 </r>
       <r>   -0.3336    1.0000 </r>
       <r>   -0.2200    1.0000 </r>
       <r>   -0.1886    1.0000 </r>
       <r>   -0.0868    1.0000 </r>
       <r>   -0.0368    1.0000 </r>
       <r>   -0.0180    1.0000 </r>
       <r>    0.0411    1.0000 </r>
       <r>    0.0714    1.0000 </r>
       <r>    0.1270    1.0000 </r>
       <r>    0.1622    1.0000 </r>
       <r>    0.1968    1.0000 </r>
       <r>    0.3094    1.0000 </r>
       <r>    0.3902    1.0000 </r>
       <r>    0.4370    1.0000 </r>
       <r>    0.4871    1.0000 </r>
       <r>    0.5566    1.0000 </r>
       <r>    0.5791    1.0000 </r>
       <r>    0.6134    1.0000 </r>
       <r>    0.6783    1.0000 </r>
       <r>    0.7334    1.0000 </r>
       <r>    0.8212    1.0000 </r>
       <r>    0.8858    1.0000 </r>
       <r>    1.6143    1.0000 </r>
       <r>    3.7770    0.0000 </r>
       <r>    4.1357    0.0000 </r>
       <r>    4.1785    0.0000 </r>
       <r>    4.2895    0.0000 </r>
       <r>    4.3092    0.0000 </r>
       <r>    4.3858    0.0000 </r>
       <r>    4.4374    0.0000 </r>
       <r>    4.5786    0.0000 </r>
       <r>    4.6276    0.0000 </r>
       <r>    4.6609    0.0000 </r>
       <r>    4.6736    0.0000 </r>
       <r>    4.7466    0.0000 </r>
       <r>    4.8119    0.0000 </r>
       <r>    4.8580    0.0000 </r>
       <r>    4.9523    0.0000 </r>
       <r>    5.0812    0.0000 </r>
       <r>    5.4962    0.0000 </r>
       <r>    6.1942    0.0000 </r>
       <r>    6.3434    0.0000 </r>
       <r>    6.5610    0.0000 </r>
       <r>    6.6936    0.0000 </r>
       <r>    6.8059    0.0000 </r>
       <r>    6.8601    0.0000 </r>
       <r>    7.0190    0.0000 </r>
       <r>    7.0839    0.0000 </r>
       <r>    7.1546    0.0000 </r>
       <r>    7.2374    0.0000 </r>
       <r>    7.2493    0.0000 </r>
       <r>    7.3864    0.0000 </r>
       <r>    7.5369    0.0000 </r>
       <r>    7.5920    0.0000 </r>
       <r>    7.6886    0.0000 </r>
      </set>
      <set comment="kpoint 2">
       <r>  -18.9108    1.0000 </r>
       <r>  -18.8765    1.0000 </r>
       <r>  -18.8688    1.0000 </r>
       <r>  -18.8445    1.0000 </r>
       <r>  -16.7032    1.0000 </r>
       <r>  -16.6601    1.0000 </r>
       <r>  -16.6566    1.0000 </r>
       <r>  -16.6171    1.0000 </r>
       <r>  -10.8299    1.0000 </r>
       <r>  -10.7908    1.0000 </r>
       <r>  -10.7132    1.0000 </r>
       <r>  -10.7019    1.0000 </r>
       <r>  -10.5509    1.0000 </r>
       <r>  -10.4832    1.0000 </r>
       <r>  -10.3853    1.0000 </r>
       <r>  -10.2891    1.0000 </r>
       <r>  -10.2374    1.0000 </r>
       <r>  -10.1909    1.0000 </r>
       <r>  -10.1656    1.0000 </r>
       <r>  -10.1380    1.0000 </r>
       <r>  -10.1127    1.0000 </r>
       <r>  -10.0438    1.0000 </r>
       <r>  -10.0085    1.0000 </r>
       <r>  -10.0017    1.0000 </r>
       <r>   -8.8103    1.0000 </r>
       <r>   -8.7631    1.0000 </r>
       <r>   -8.7555    1.0000 </r>
       <r>   -8.7166    1.0000 </r>
       <r>   -8.1378    1.0000 </r>
       <r>   -8.1125    1.0000 </r>
       <r>   -8.1013    1.0000 </r>
       <r>   -8.0574    1.0000 </r>
       <r>   -6.4647    1.0000 </r>
       <r>   -6.4424    1.0000 </r>
       <r>   -6.4217    1.0000 </r>
       <r>   -6.3995    1.0000 </r>
       <r>   -5.0539    1.0000 </r>
       <r>   -5.0205    1.0000 </r>
       <r>   -4.9426    1.0000 </r>
       <r>   -4.9372    1.0000 </r>
       <r>   -4.8840    1.0000 </r>
       <r>   -4.8522    1.0000 </r>
       <r>   -4.7739    1.0000 </r>
       <r>   -4.7551    1.0000 </r>
       <r>   -4.4072    1.0000 </r>
       <r>   -4.3611    1.0000 </r>
       <r>   -4.3498    1.0000 </r>
       <r>   -4.3386    1.0000 </r>
       <r>   -2.0557    1.0000 </r>
       <r>   -2.0145    1.0000 </r>
       <r>   -1.4430    1.0000 </r>
       <r>   -1.4113    1.0000 </r>
       <r>   -1.3793    1.0000 </r>
       <r>   -1.2455    1.0000 </r>
       <r>   -1.2208    1.0000 </r>
       <r>   -1.1339    1.0000 </r>
       <r>   -1.1228    1.0000 </r>
       <r>   -1.0966    1.0000 </r>
       <r>   -1.0462    1.0000 </r>
       <r>   -0.9483    1.0000 </r>
       <r>   -0.9072    1.0000 </r>
       <r>   -0.8399    1.0000 </r>
       <r>   -0.6511    1.0000 </r>
       <r>   -0.5436    1.0000 </r>
       <r>   -0.5203    1.0000 </r>
       <r>   -0.4667    1.0000 </r>
       <r>   -0.0921    1.0000 </r>
       <r>   -0.0598    1.0000 </r>
       <r>    0.0006    1.0000 </r>
       <r>    0.0184    1.0000 </r>
       <r>    0.0586    1.0000 </r>
       <r>    0.0639    1.0000 </r>
       <r>    0.0813    1.0000 </r>
       <r>    0.1197    1.0000 </r>
       <r>    0.1351    1.0000 </r>
       <r>    0.1826    1.0000 </r>
       <r>    0.2336    1.0000 </r>
       <r>    0.2521    1.0000 </r>
       <r>    0.3363    1.0000 </r>
       <r>    0.3648    1.0000 </r>
       <r>    0.4622    1.0000 </r>
       <r>    0.5210    1.0000 </r>
       <r>    0.6836    1.0000 </r>
       <r>    0.7012    1.0000 </r>
       <r>    0.7115    1.0000 </r>
       <r>    0.7898    1.0000 </r>
       <r>    1.3006    1.0000 </r>
       <r>    1.3270    1.0000 </r>
       <r>    4.1143    0.0000 </r>
       <r>    4.1292    0.0000 </r>
       <r>    4.2456    0.0000 </r>
       <r>    4.2870    0.0000 </r>
       <r>    4.3421    0.0000 </r>
       <r>    4.3951    0.0000 </r>
       <r>    4.4018    0.0000 </r>
       <r>    4.5174    0.0000 </r>
       <r>    4.5913    0.0000 </r>
       <r>    4.6032    0.0000 </r>
       <r>    4.6711    0.0000 </r>
       <r>    4.6864    0.0000 </r>
       <r>    4.7475    0.0000 </r>
       <r>    4.8066    0.0000 </r>
       <r>    4.9354    0.0000 </r>
       <r>    5.0020    0.0000 </r>
       <r>    5.7422    0.0000 </r>
       <r>    5.8097    0.0000 </r>
       <r>    6.4019    0.0000 </r>
       <r>    6.5529    0.0000 </r>
       <r>    6.7848    0.0000 </r>
       <r>    6.8901    0.0000 </r>
       <r>    6.9508    0.0000 </r>
       <r>    6.9966    0.0000 </r>
       <r>    7.1482    0.0000 </r>
       <r>    7.1884    0.0000 </r>
       <r>    7.2447    0.0000 </r>
       <r>    7.3750    0.0000 </r>
       <r>    7.4319    0.0000 </r>
       <r>    7.5168    0.0000 </r>
       <r>    7.6174    0.0000 </r>
       <r>    7.7077    0.0000 </r>
      </set>
      <set comment="kpoint 3">
       <r>  -18.9107    1.0000 </r>
       <r>  -18.8765    1.0000 </r>
       <r>  -18.8687    1.0000 </r>
       <r>  -18.8445    1.0000 </r>
       <r>  -16.7033    1.0000 </r>
       <r>  -16.6603    1.0000 </r>
       <r>  -16.6567    1.0000 </r>
       <r>  -16.6171    1.0000 </r>
       <r>  -10.8437    1.0000 </r>
       <r>  -10.7767    1.0000 </r>
       <r>  -10.7424    1.0000 </r>
       <r>  -10.7027    1.0000 </r>
       <r>  -10.5454    1.0000 </r>
       <r>  -10.4948    1.0000 </r>
       <r>  -10.3726    1.0000 </r>
       <r>  -10.2543    1.0000 </r>
       <r>  -10.2136    1.0000 </r>
       <r>  -10.1852    1.0000 </r>
       <r>  -10.1620    1.0000 </r>
       <r>  -10.1372    1.0000 </r>
       <r>  -10.1124    1.0000 </r>
       <r>  -10.0560    1.0000 </r>
       <r>  -10.0351    1.0000 </r>
       <r>  -10.0163    1.0000 </r>
       <r>   -8.7950    1.0000 </r>
       <r>   -8.7521    1.0000 </r>
       <r>   -8.7461    1.0000 </r>
       <r>   -8.7118    1.0000 </r>
       <r>   -8.1446    1.0000 </r>
       <r>   -8.1184    1.0000 </r>
       <r>   -8.1088    1.0000 </r>
       <r>   -8.0573    1.0000 </r>
       <r>   -6.4756    1.0000 </r>
       <r>   -6.4472    1.0000 </r>
       <r>   -6.4298    1.0000 </r>
       <r>   -6.3977    1.0000 </r>
       <r>   -5.0412    1.0000 </r>
       <r>   -4.9914    1.0000 </r>
       <r>   -4.9679    1.0000 </r>
       <r>   -4.9417    1.0000 </r>
       <r>   -4.8951    1.0000 </r>
       <r>   -4.8596    1.0000 </r>
       <r>   -4.7835    1.0000 </r>
       <r>   -4.7578    1.0000 </r>
       <r>   -4.4029    1.0000 </r>
       <r>   -4.3580    1.0000 </r>
       <r>   -4.3471    1.0000 </r>
       <r>   -4.3354    1.0000 </r>
       <r>   -2.0396    1.0000 </r>
       <r>   -1.7693    1.0000 </r>
       <r>   -1.4849    1.0000 </r>
       <r>   -1.4473    1.0000 </r>
       <r>   -1.3875    1.0000 </r>
       <r>   -1.2956    1.0000 </r>
       <r>   -1.2528    1.0000 </r>
       <r>   -1.1765    1.0000 </r>
       <r>   -1.1686    1.0000 </r>
       <r>   -1.0728    1.0000 </r>
       <r>   -1.0144    1.0000 </r>
       <r>   -1.0050    1.0000 </r>
       <r>   -0.9117    1.0000 </r>
       <r>   -0.8245    1.0000 </r>
       <r>   -0.6315    1.0000 </r>
       <r>   -0.3864    1.0000 </r>
       <r>   -0.3688    1.0000 </r>
       <r>   -0.3098    1.0000 </r>
       <r>   -0.1475    1.0000 </r>
       <r>   -0.1156    1.0000 </r>
       <r>   -0.0686    1.0000 </r>
       <r>   -0.0576    1.0000 </r>
       <r>   -0.0091    1.0000 </r>
       <r>    0.0434    1.0000 </r>
       <r>    0.0747    1.0000 </r>
       <r>    0.0881    1.0000 </r>
       <r>    0.1139    1.0000 </r>
       <r>    0.1464    1.0000 </r>
       <r>    0.1783    1.0000 </r>
       <r>    0.2370    1.0000 </r>
       <r>    0.2639    1.0000 </r>
       <r>    0.3272    1.0000 </r>
       <r>    0.4160    1.0000 </r>
       <r>    0.4306    1.0000 </r>
       <r>    0.5049    1.0000 </r>
       <r>    0.6076    1.0000 </r>
       <r>    0.6746    1.0000 </r>
       <r>    0.8250    1.0000 </r>
       <r>    1.3277    1.0000 </r>
       <r>    1.6505    1.0000 </r>
       <r>    4.1491    0.0000 </r>
       <r>    4.2205    0.0000 </r>
       <r>    4.2750    0.0000 </r>
       <r>    4.3323    0.0000 </r>
       <r>    4.3988    0.0000 </r>
       <r>    4.4445    0.0000 </r>
       <r>    4.4982    0.0000 </r>
       <r>    4.5287    0.0000 </r>
       <r>    4.5535    0.0000 </r>
       <r>    4.5893    0.0000 </r>
       <r>    4.6735    0.0000 </r>
       <r>    4.7157    0.0000 </r>
       <r>    4.7806    0.0000 </r>
       <r>    4.8602    0.0000 </r>
       <r>    4.9984    0.0000 </r>
       <r>    5.0779    0.0000 </r>
       <r>    5.7481    0.0000 </r>
       <r>    6.2288    0.0000 </r>
       <r>    6.4180    0.0000 </r>
       <r>    6.6461    0.0000 </r>
       <r>    6.7308    0.0000 </r>
       <r>    6.8740    0.0000 </r>
       <r>    6.9451    0.0000 </r>
       <r>    7.0507    0.0000 </r>
       <r>    7.0804    0.0000 </r>
       <r>    7.1536    0.0000 </r>
       <r>    7.2522    0.0000 </r>
       <r>    7.3243    0.0000 </r>
       <r>    7.3534    0.0000 </r>
       <r>    7.4069    0.0000 </r>
       <r>    7.4716    0.0000 </r>
       <r>    7.7311    0.0000 </r>
      </set>
      <set comment="kpoint 4">
       <r>  -18.9107    1.0000 </r>
       <r>  -18.8765    1.0000 </r>
       <r>  -18.8687    1.0000 </r>
       <r>  -18.8445    1.0000 </r>
       <r>  -16.7033    1.0000 </r>
       <r>  -16.6603    1.0000 </r>
       <r>  -16.6567    1.0000 </r>
       <r>  -16.6171    1.0000 </r>
       <r>  -10.8354    1.0000 </r>
       <r>  -10.7896    1.0000 </r>
       <r>  -10.7479    1.0000 </r>
       <r>  -10.6922    1.0000 </r>
       <r>  -10.5506    1.0000 </r>
       <r>  -10.4891    1.0000 </r>
       <r>  -10.3706    1.0000 </r>
       <r>  -10.2511    1.0000 </r>
       <r>  -10.2229    1.0000 </r>
       <r>  -10.1778    1.0000 </r>
       <r>  -10.1654    1.0000 </r>
       <r>  -10.1259    1.0000 </r>
       <r>  -10.1180    1.0000 </r>
       <r>  -10.0720    1.0000 </r>
       <r>  -10.0373    1.0000 </r>
       <r>  -10.0048    1.0000 </r>
       <r>   -8.7949    1.0000 </r>
       <r>   -8.7521    1.0000 </r>
       <r>   -8.7463    1.0000 </r>
       <r>   -8.7115    1.0000 </r>
       <r>   -8.1446    1.0000 </r>
       <r>   -8.1185    1.0000 </r>
       <r>   -8.1086    1.0000 </r>
       <r>   -8.0573    1.0000 </r>
       <r>   -6.4756    1.0000 </r>
       <r>   -6.4468    1.0000 </r>
       <r>   -6.4303    1.0000 </r>
       <r>   -6.3977    1.0000 </r>
       <r>   -5.0319    1.0000 </r>
       <r>   -4.9924    1.0000 </r>
       <r>   -4.9762    1.0000 </r>
       <r>   -4.9281    1.0000 </r>
       <r>   -4.9156    1.0000 </r>
       <r>   -4.8516    1.0000 </r>
       <r>   -4.7837    1.0000 </r>
       <r>   -4.7584    1.0000 </r>
       <r>   -4.4016    1.0000 </r>
       <r>   -4.3617    1.0000 </r>
       <r>   -4.3469    1.0000 </r>
       <r>   -4.3347    1.0000 </r>
       <r>   -1.9718    1.0000 </r>
       <r>   -1.8943    1.0000 </r>
       <r>   -1.4967    1.0000 </r>
       <r>   -1.4373    1.0000 </r>
       <r>   -1.3789    1.0000 </r>
       <r>   -1.2958    1.0000 </r>
       <r>   -1.2092    1.0000 </r>
       <r>   -1.1732    1.0000 </r>
       <r>   -1.1606    1.0000 </r>
       <r>   -1.0839    1.0000 </r>
       <r>   -1.0024    1.0000 </r>
       <r>   -0.8977    1.0000 </r>
       <r>   -0.8463    1.0000 </r>
       <r>   -0.7758    1.0000 </r>
       <r>   -0.6326    1.0000 </r>
       <r>   -0.5891    1.0000 </r>
       <r>   -0.3555    1.0000 </r>
       <r>   -0.2889    1.0000 </r>
       <r>   -0.2331    1.0000 </r>
       <r>   -0.1829    1.0000 </r>
       <r>   -0.1207    1.0000 </r>
       <r>   -0.0725    1.0000 </r>
       <r>   -0.0345    1.0000 </r>
       <r>   -0.0131    1.0000 </r>
       <r>    0.0310    1.0000 </r>
       <r>    0.0950    1.0000 </r>
       <r>    0.1265    1.0000 </r>
       <r>    0.1592    1.0000 </r>
       <r>    0.1985    1.0000 </r>
       <r>    0.2580    1.0000 </r>
       <r>    0.2898    1.0000 </r>
       <r>    0.3040    1.0000 </r>
       <r>    0.4257    1.0000 </r>
       <r>    0.5079    1.0000 </r>
       <r>    0.6008    1.0000 </r>
       <r>    0.6465    1.0000 </r>
       <r>    0.7254    1.0000 </r>
       <r>    0.7983    1.0000 </r>
       <r>    1.4452    1.0000 </r>
       <r>    1.5266    1.0000 </r>
       <r>    4.0861    0.0000 </r>
       <r>    4.1452    0.0000 </r>
       <r>    4.2669    0.0000 </r>
       <r>    4.3257    0.0000 </r>
       <r>    4.3615    0.0000 </r>
       <r>    4.4264    0.0000 </r>
       <r>    4.4489    0.0000 </r>
       <r>    4.4881    0.0000 </r>
       <r>    4.5693    0.0000 </r>
       <r>    4.6608    0.0000 </r>
       <r>    4.7133    0.0000 </r>
       <r>    4.7630    0.0000 </r>
       <r>    4.8365    0.0000 </r>
       <r>    4.9309    0.0000 </r>
       <r>    5.0163    0.0000 </r>
       <r>    5.0668    0.0000 </r>
       <r>    5.8630    0.0000 </r>
       <r>    6.0320    0.0000 </r>
       <r>    6.4571    0.0000 </r>
       <r>    6.5873    0.0000 </r>
       <r>    6.7490    0.0000 </r>
       <r>    6.8135    0.0000 </r>
       <r>    6.9272    0.0000 </r>
       <r>    7.0291    0.0000 </r>
       <r>    7.1095    0.0000 </r>
       <r>    7.1910    0.0000 </r>
       <r>    7.2240    0.0000 </r>
       <r>    7.2467    0.0000 </r>
       <r>    7.3765    0.0000 </r>
       <r>    7.4519    0.0000 </r>
       <r>    7.5422    0.0000 </r>
       <r>    7.6400    0.0000 </r>
      </set>
      <set comment="kpoint 5">
       <r>  -18.9106    1.0000 </r>
       <r>  -18.8762    1.0000 </r>
       <r>  -18.8687    1.0000 </r>
       <r>  -18.8443    1.0000 </r>
       <r>  -16.7037    1.0000 </r>
       <r>  -16.6614    1.0000 </r>
       <r>  -16.6571    1.0000 </r>
       <r>  -16.6178    1.0000 </r>
       <r>  -10.7731    1.0000 </r>
       <r>  -10.7284    1.0000 </r>
       <r>  -10.6940    1.0000 </r>
       <r>  -10.6833    1.0000 </r>
       <r>  -10.5414    1.0000 </r>
       <r>  -10.4701    1.0000 </r>
       <r>  -10.4300    1.0000 </r>
       <r>  -10.3054    1.0000 </r>
       <r>  -10.2806    1.0000 </r>
       <r>  -10.2393    1.0000 </r>
       <r>  -10.1590    1.0000 </r>
       <r>  -10.1209    1.0000 </r>
       <r>  -10.1072    1.0000 </r>
       <r>  -10.0687    1.0000 </r>
       <r>  -10.0411    1.0000 </r>
       <r>  -10.0346    1.0000 </r>
       <r>   -8.8036    1.0000 </r>
       <r>   -8.7817    1.0000 </r>
       <r>   -8.7590    1.0000 </r>
       <r>   -8.7256    1.0000 </r>
       <r>   -8.1338    1.0000 </r>
       <r>   -8.1011    1.0000 </r>
       <r>   -8.0960    1.0000 </r>
       <r>   -8.0505    1.0000 </r>
[...]
       <r>    4.3002    0.0000 </r>
       <r>    4.3511    0.0000 </r>
       <r>    4.4173    0.0000 </r>
       <r>    4.4940    0.0000 </r>
       <r>    4.5496    0.0000 </r>
       <r>    4.6606    0.0000 </r>
       <r>    4.7027    0.0000 </r>
       <r>    4.7337    0.0000 </r>
       <r>    4.7682    0.0000 </r>
       <r>    4.8069    0.0000 </r>
       <r>    4.8803    0.0000 </r>
       <r>    4.9334    0.0000 </r>
       <r>    6.1698    0.0000 </r>
       <r>    6.2722    0.0000 </r>
       <r>    6.5062    0.0000 </r>
       <r>    6.6433    0.0000 </r>
       <r>    6.7992    0.0000 </r>
       <r>    6.8144    0.0000 </r>
       <r>    6.9219    0.0000 </r>
       <r>    7.0219    0.0000 </r>
       <r>    7.0748    0.0000 </r>
       <r>    7.1851    0.0000 </r>
       <r>    7.3337    0.0000 </r>
       <r>    7.3812    0.0000 </r>
       <r>    7.4640    0.0000 </r>
       <r>    7.5535    0.0000 </r>
       <r>    7.7772    0.0000 </r>
       <r>    7.8323    0.0000 </r>
      </set>
     </set>
    </set>
   </array>
  </eigenvalues>
  <separator name="orbital magnetization" >
   <v name="MAGDIPOLOUT">      0.00000000      0.00000000      0.00000000</v>
  </separator>
  <dos>
   <i name="efermi">      1.91074642 </i>
   <total>
    <array>
     <dimension dim="1">gridpoints</dimension>
     <dimension dim="2">spin</dimension>
     <field>energy</field>
     <field>total</field>
     <field>integrated</field>
     <set>
      <set comment="spin 1">
       <r>   -20.2534     0.0000     0.0000 </r>
       <r>   -20.1549     0.0000     0.0000 </r>
       <r>   -20.0565     0.0000     0.0000 </r>
       <r>   -19.9580     0.0000     0.0000 </r>
       <r>   -19.8596     0.0000     0.0000 </r>
       <r>   -19.7611     0.0000     0.0000 </r>
       <r>   -19.6627     0.0000     0.0000 </r>
       <r>   -19.5642     0.0000     0.0000 </r>
       <r>   -19.4658     0.0000     0.0000 </r>
       <r>   -19.3673     0.0000     0.0000 </r>
       <r>   -19.2689     0.0000     0.0000 </r>
       <r>   -19.1704     0.0000     0.0000 </r>
       <r>   -19.0720     0.0001     0.0000 </r>
       <r>   -18.9735     0.8591     0.0846 </r>
       <r>   -18.8751    39.3205     3.9558 </r>
       <r>   -18.7766    40.3735     7.9307 </r>
       <r>   -18.6781     0.7042     8.0000 </r>
       <r>   -18.5797     0.0000     8.0000 </r>
       <r>   -18.4812     0.0000     8.0000 </r>
       <r>   -18.3828     0.0000     8.0000 </r>
       <r>   -18.2843     0.0000     8.0000 </r>
       <r>   -18.1859     0.0000     8.0000 </r>
       <r>   -18.0874     0.0000     8.0000 </r>
       <r>   -17.9890     0.0000     8.0000 </r>
       <r>   -17.8905     0.0000     8.0000 </r>
       <r>   -17.7921     0.0000     8.0000 </r>
       <r>   -17.6936     0.0000     8.0000 </r>
       <r>   -17.5952     0.0000     8.0000 </r>
       <r>   -17.4967     0.0000     8.0000 </r>
       <r>   -17.3983     0.0000     8.0000 </r>
       <r>   -17.2998     0.0000     8.0000 </r>
       <r>   -17.2014     0.0000     8.0000 </r>
       <r>   -17.1029     0.0000     8.0000 </r>
       <r>   -17.0045     0.0000     8.0000 </r>
       <r>   -16.9060     0.0000     8.0000 </r>
       <r>   -16.8075     0.0343     8.0034 </r>
       <r>   -16.7091    12.1879     9.2033 </r>
       <r>   -16.6106    56.8656    14.8019 </r>
       <r>   -16.5122    12.1396    15.9970 </r>
       <r>   -16.4137     0.0301    16.0000 </r>
       <r>   -16.3153     0.0000    16.0000 </r>
       <r>   -16.2168     0.0000    16.0000 </r>
       <r>   -16.1184     0.0000    16.0000 </r>
       <r>   -16.0199     0.0000    16.0000 </r>
       <r>   -15.9215     0.0000    16.0000 </r>
       <r>   -15.8230     0.0000    16.0000 </r>
       <r>   -15.7246     0.0000    16.0000 </r>
       <r>   -15.6261     0.0000    16.0000 </r>
       <r>   -15.5277     0.0000    16.0000 </r>
       <r>   -15.4292     0.0000    16.0000 </r>
       <r>   -15.3308     0.0000    16.0000 </r>
       <r>   -15.2323     0.0000    16.0000 </r>
       <r>   -15.1339     0.0000    16.0000 </r>
       <r>   -15.0354     0.0000    16.0000 </r>
       <r>   -14.9369     0.0000    16.0000 </r>
       <r>   -14.8385     0.0000    16.0000 </r>
       <r>   -14.7400     0.0000    16.0000 </r>
       <r>   -14.6416     0.0000    16.0000 </r>
       <r>   -14.5431     0.0000    16.0000 </r>
       <r>   -14.4447     0.0000    16.0000 </r>
       <r>   -14.3462     0.0000    16.0000 </r>
       <r>   -14.2478     0.0000    16.0000 </r>
       <r>   -14.1493     0.0000    16.0000 </r>
       <r>   -14.0509     0.0000    16.0000 </r>
       <r>   -13.9524     0.0000    16.0000 </r>
       <r>   -13.8540     0.0000    16.0000 </r>
       <r>   -13.7555     0.0000    16.0000 </r>
       <r>   -13.6571     0.0000    16.0000 </r>
       <r>   -13.5586     0.0000    16.0000 </r>
       <r>   -13.4602     0.0000    16.0000 </r>
       <r>   -13.3617     0.0000    16.0000 </r>
       <r>   -13.2633     0.0000    16.0000 </r>
       <r>   -13.1648     0.0000    16.0000 </r>
       <r>   -13.0663     0.0000    16.0000 </r>
       <r>   -12.9679     0.0000    16.0000 </r>
       <r>   -12.8694     0.0000    16.0000 </r>
       <r>   -12.7710     0.0000    16.0000 </r>
       <r>   -12.6725     0.0000    16.0000 </r>
       <r>   -12.5741     0.0000    16.0000 </r>
       <r>   -12.4756     0.0000    16.0000 </r>
       <r>   -12.3772     0.0000    16.0000 </r>
       <r>   -12.2787     0.0000    16.0000 </r>
       <r>   -12.1803     0.0000    16.0000 </r>
       <r>   -12.0818     0.0000    16.0000 </r>
       <r>   -11.9834     0.0000    16.0000 </r>
       <r>   -11.8849     0.0000    16.0000 </r>
       <r>   -11.7865     0.0000    16.0000 </r>
       <r>   -11.6880     0.0000    16.0000 </r>
       <r>   -11.5896     0.0000    16.0000 </r>
       <r>   -11.4911     0.0000    16.0000 </r>
       <r>   -11.3927     0.0000    16.0000 </r>
       <r>   -11.2942     0.0000    16.0000 </r>
       <r>   -11.1958     0.0000    16.0000 </r>
       <r>   -11.0973     0.0000    16.0000 </r>
       <r>   -10.9988     0.0000    16.0000 </r>
       <r>   -10.9004     0.3319    16.0327 </r>
       <r>   -10.8019    14.0562    17.4165 </r>
       <r>   -10.7035    43.4071    21.6901 </r>
       <r>   -10.6050    23.4606    23.9998 </r>
       <r>   -10.5066    17.3891    25.7119 </r>
       <r>   -10.4081    29.4295    28.6093 </r>
       <r>   -10.3097    23.0570    30.8793 </r>
       <r>   -10.2112    38.3692    34.6568 </r>
       <r>   -10.1128    62.4533    40.8055 </r>
       <r>   -10.0143    60.7448    46.7860 </r>
       <r>    -9.9159    12.2771    47.9947 </r>
       <r>    -9.8174     0.0537    48.0000 </r>
       <r>    -9.7190     0.0000    48.0000 </r>
       <r>    -9.6205     0.0000    48.0000 </r>
       <r>    -9.5221     0.0000    48.0000 </r>
       <r>    -9.4236     0.0000    48.0000 </r>
       <r>    -9.3252     0.0000    48.0000 </r>
       <r>    -9.2267     0.0000    48.0000 </r>
       <r>    -9.1282     0.0000    48.0000 </r>
       <r>    -9.0298     0.0000    48.0000 </r>
       <r>    -8.9313     0.0020    48.0002 </r>
       <r>    -8.8329     4.0976    48.4036 </r>
       <r>    -8.7344    52.3173    53.5544 </r>
       <r>    -8.6360    24.6281    55.9791 </r>
       <r>    -8.5375     0.2123    56.0000 </r>
       <r>    -8.4391     0.0000    56.0000 </r>
       <r>    -8.3406     0.0000    56.0000 </r>
       <r>    -8.2422     0.0447    56.0044 </r>
       <r>    -8.1437    15.2861    57.5094 </r>
       <r>    -8.0453    55.4195    62.9656 </r>
       <r>    -7.9468    10.4766    63.9970 </r>
       <r>    -7.8484     0.0304    64.0000 </r>
       <r>    -7.7499     0.0000    64.0000 </r>
       <r>    -7.6515     0.0000    64.0000 </r>
       <r>    -7.5530     0.0000    64.0000 </r>
       <r>    -7.4546     0.0000    64.0000 </r>
       <r>    -7.3561     0.0000    64.0000 </r>
       <r>    -7.2576     0.0000    64.0000 </r>
       <r>    -7.1592     0.0000    64.0000 </r>
       <r>    -7.0607     0.0000    64.0000 </r>
       <r>    -6.9623     0.0000    64.0000 </r>
       <r>    -6.8638     0.0000    64.0000 </r>
       <r>    -6.7654     0.0000    64.0000 </r>
       <r>    -6.6669     0.0000    64.0000 </r>
       <r>    -6.5685     0.0922    64.0091 </r>
       <r>    -6.4700    18.2317    65.8040 </r>
       <r>    -6.3716    56.6807    71.3844 </r>
       <r>    -6.2731     6.2487    71.9996 </r>
       <r>    -6.1747     0.0041    72.0000 </r>
       <r>    -6.0762     0.0000    72.0000 </r>
       <r>    -5.9778     0.0000    72.0000 </r>
       <r>    -5.8793     0.0000    72.0000 </r>
       <r>    -5.7809     0.0000    72.0000 </r>
       <r>    -5.6824     0.0000    72.0000 </r>
       <r>    -5.5840     0.0000    72.0000 </r>
       <r>    -5.4855     0.0000    72.0000 </r>
       <r>    -5.3870     0.0000    72.0000 </r>
       <r>    -5.2886     0.0000    72.0000 </r>
       <r>    -5.1901     0.0073    72.0007 </r>
       <r>    -5.0917     1.8947    72.1872 </r>
       <r>    -4.9932    29.3864    75.0804 </r>
       <r>    -4.8948    54.7806    80.4737 </r>
       <r>    -4.7963    49.2934    85.3268 </r>
       <r>    -4.6979    26.4976    87.9355 </r>
       <r>    -4.5994     0.6548    88.0000 </r>
       <r>    -4.5010     0.0864    88.0085 </r>
       <r>    -4.4025    16.4518    89.6282 </r>
       <r>    -4.3041    58.7822    95.4155 </r>
       <r>    -4.2056     5.9350    95.9998 </r>
       <r>    -4.1072     0.0021    96.0000 </r>
       <r>    -4.0087     0.0000    96.0000 </r>
       <r>    -3.9103     0.0000    96.0000 </r>
       <r>    -3.8118     0.0000    96.0000 </r>
       <r>    -3.7134     0.0000    96.0000 </r>
       <r>    -3.6149     0.0000    96.0000 </r>
       <r>    -3.5165     0.0000    96.0000 </r>
       <r>    -3.4180     0.0000    96.0000 </r>
       <r>    -3.3195     0.0000    96.0000 </r>
       <r>    -3.2211     0.0000    96.0000 </r>
       <r>    -3.1226     0.0000    96.0000 </r>
       <r>    -3.0242     0.0000    96.0000 </r>
       <r>    -2.9257     0.0000    96.0000 </r>
       <r>    -2.8273     0.0000    96.0000 </r>
       <r>    -2.7288     0.0000    96.0000 </r>
       <r>    -2.6304     0.0000    96.0000 </r>
       <r>    -2.5319     0.0000    96.0000 </r>
       <r>    -2.4335     0.0000    96.0000 </r>
       <r>    -2.3350     0.0002    96.0000 </r>
       <r>    -2.2366     0.2406    96.0237 </r>
       <r>    -2.1381     0.8789    96.1102 </r>
       <r>    -2.0397     2.2298    96.3298 </r>
       <r>    -1.9412     4.2939    96.7525 </r>
       <r>    -1.8428     2.9444    97.0424 </r>
       <r>    -1.7443     6.1191    97.6448 </r>
       <r>    -1.6459    11.4367    98.7708 </r>
       <r>    -1.5474     8.2141    99.5795 </r>
       <r>    -1.4489    15.7740   101.1325 </r>
       <r>    -1.3505    34.6440   104.5433 </r>
       <r>    -1.2520    42.2097   108.6989 </r>
       <r>    -1.1536    46.1433   113.2419 </r>
       <r>    -1.0551    38.9917   117.0807 </r>
       <r>    -0.9567    35.3240   120.5584 </r>
       <r>    -0.8582    24.6124   122.9816 </r>
       <r>    -0.7598    11.3446   124.0985 </r>
       <r>    -0.6613    14.9341   125.5688 </r>
       <r>    -0.5629    17.5499   127.2966 </r>
       <r>    -0.4644    10.5257   128.3329 </r>
       <r>    -0.3660    22.1825   130.5168 </r>
       <r>    -0.2675    30.2828   133.4983 </r>
       <r>    -0.1691    22.8862   135.7515 </r>
       <r>    -0.0706    34.3731   139.1356 </r>
       <r>     0.0278    40.1416   143.0876 </r>
       <r>     0.1263    51.9485   148.2021 </r>
       <r>     0.2247    46.3501   152.7654 </r>
       <r>     0.3232    35.6486   156.2751 </r>
       <r>     0.4217    36.0347   159.8228 </r>
       <r>     0.5201    37.0837   163.4738 </r>
       <r>     0.6186    30.2630   166.4532 </r>
       <r>     0.7170    19.1506   168.3387 </r>
       <r>     0.8155    10.7678   169.3988 </r>
       <r>     0.9139    15.4506   170.9199 </r>
       <r>     1.0124    11.2377   172.0263 </r>
       <r>     1.1108     3.1114   172.3326 </r>
       <r>     1.2093     2.8525   172.6135 </r>
       <r>     1.3077    10.9207   173.6886 </r>
       <r>     1.4062     8.5607   174.5315 </r>
       <r>     1.5046     9.4215   175.4590 </r>
       <r>     1.6031     2.7018   175.7250 </r>
       <r>     1.7015     2.6173   175.9827 </r>
       <r>     1.8000     0.1755   176.0000 </r>
       <r>     1.8984     0.0000   176.0000 </r>
       <r>     1.9969     0.0000   176.0000 </r>
       <r>     2.0953     0.0000   176.0000 </r>
       <r>     2.1938     0.0000   176.0000 </r>
       <r>     2.2923     0.0000   176.0000 </r>
       <r>     2.3907     0.0000   176.0000 </r>
       <r>     2.4892     0.0000   176.0000 </r>
       <r>     2.5876     0.0000   176.0000 </r>
       <r>     2.6861     0.0000   176.0000 </r>
       <r>     2.7845     0.0000   176.0000 </r>
       <r>     2.8830     0.0000   176.0000 </r>
       <r>     2.9814     0.0000   176.0000 </r>
       <r>     3.0799     0.0000   176.0000 </r>
       <r>     3.1783     0.0000   176.0000 </r>
       <r>     3.2768     0.0000   176.0000 </r>
       <r>     3.3752     0.0000   176.0000 </r>
       <r>     3.4737     0.0000   176.0000 </r>
       <r>     3.5721     0.0000   176.0000 </r>
       <r>     3.6706     0.0015   176.0001 </r>
       <r>     3.7690     0.4704   176.0465 </r>
       <r>     3.8675     1.8641   176.2300 </r>
       <r>     3.9659     1.1920   176.3473 </r>
       <r>     4.0644     6.0190   176.9399 </r>
       <r>     4.1628    25.0153   179.4028 </r>
       <r>     4.2613    32.0062   182.5538 </r>
       <r>     4.3598    40.5034   186.5415 </r>
       <r>     4.4582    38.2496   190.3073 </r>
       <r>     4.5567    37.2068   193.9704 </r>
       <r>     4.6551    35.3835   197.4540 </r>
       <r>     4.7536    38.2649   201.2213 </r>
       <r>     4.8520    28.1943   203.9971 </r>
       <r>     4.9505    21.5750   206.1212 </r>
       <r>     5.0489    14.0085   207.5003 </r>
       <r>     5.1474     4.9589   207.9886 </r>
       <r>     5.2458     0.1163   208.0000 </r>
       <r>     5.3443     0.0000   208.0000 </r>
       <r>     5.4427     0.0735   208.0072 </r>
       <r>     5.5412     0.9402   208.0998 </r>
       <r>     5.6396     0.1194   208.1116 </r>
       <r>     5.7381     1.4085   208.2502 </r>
       <r>     5.8365     3.3428   208.5793 </r>
       <r>     5.9350     2.0148   208.7777 </r>
       <r>     6.0334     3.2654   209.0992 </r>
       <r>     6.1319     8.3712   209.9233 </r>
       <r>     6.2304     8.5251   210.7627 </r>
       <r>     6.3288     7.6728   211.5181 </r>
       <r>     6.4273    12.7545   212.7738 </r>
       <r>     6.5257    12.0999   213.9651 </r>
       <r>     6.6242     8.8729   214.8386 </r>
       <r>     6.7226    13.6385   216.1814 </r>
       <r>     6.8211    18.3070   217.9837 </r>
       <r>     6.9195    18.9819   219.8526 </r>
       <r>     7.0180    19.7397   221.7960 </r>
       <r>     7.1164    23.6834   224.1277 </r>
       <r>     7.2149    29.0028   226.9831 </r>
       <r>     7.3133    26.2860   229.5710 </r>
       <r>     7.4118    26.7164   232.2013 </r>
       <r>     7.5102    20.8679   234.2558 </r>
       <r>     7.6087    17.7008   235.9985 </r>
       <r>     7.7071    20.2325   237.9904 </r>
       <r>     7.8056    11.3494   239.1078 </r>
       <r>     7.9040     7.0673   239.8036 </r>
       <r>     8.0025     1.9087   239.9915 </r>
       <r>     8.1010     0.0862   240.0000 </r>
       <r>     8.1994     0.0000   240.0000 </r>
       <r>     8.2979     0.0000   240.0000 </r>
       <r>     8.3963     0.0000   240.0000 </r>
       <r>     8.4948     0.0000   240.0000 </r>
       <r>     8.5932     0.0000   240.0000 </r>
       <r>     8.6917     0.0000   240.0000 </r>
       <r>     8.7901     0.0000   240.0000 </r>
       <r>     8.8886     0.0000   240.0000 </r>
       <r>     8.9870     0.0000   240.0000 </r>
       <r>     9.0855     0.0000   240.0000 </r>
       <r>     9.1839     0.0000   240.0000 </r>
       <r>     9.2824     0.0000   240.0000 </r>
      </set>
     </set>
    </array>
   </total>
  </dos>
 </calculation>
 <structure name="finalpos" >
  <crystal>
   <varray name="basis" >
    <v>      14.59600787      -0.01226206       0.02493304 </v>
    <v>      -0.00585869       8.60977076      -0.11183135 </v>
    <v>       0.01727254      -0.10600809       7.86209701 </v>
   </varray>
   <i name="volume">    987.83895296 </i>
   <varray name="rec_basis" >
    <v>       0.06851218       0.00004467      -0.00014991 </v>
    <v>       0.00009492       0.11616752       0.00156613 </v>
    <v>      -0.00021592       0.00165224       0.12721528 </v>
   </varray>
  </crystal>
  <varray name="positions" >
   <v>       0.66171014       0.53131947       0.31042214 </v>
   <v>       0.32093260       0.46330032       0.79363623 </v>
   <v>       0.84157382       0.06669689       0.75818308 </v>
   <v>       0.17840275       0.02468545       0.20424146 </v>
   <v>       0.67540384       0.45671791       0.06015059 </v>
   <v>       0.65769277       0.29221423       0.31940174 </v>
   <v>       0.64292583       0.39366488       0.51322231 </v>
   <v>       0.67776361       0.65824330       0.10043564 </v>
   <v>       0.65775188       0.63702855       0.39080372 </v>
   <v>       0.36198369       0.58480200       0.58307169 </v>
   <v>       0.44604018       0.55679992       0.85855759 </v>
   <v>       0.39292142       0.44079669       0.01160136 </v>
   <v>       0.25663490       0.49060148       0.56800570 </v>
   <v>       0.26483610       0.39087971       0.83988836 </v>
   <v>       0.83904547       0.83818585       0.82887892 </v>
   <v>       0.85512441       0.93974142       0.53299462 </v>
   <v>       0.85391832       0.14044877       0.51559873 </v>
   <v>       0.83281523       0.97958306       0.99380568 </v>
   <v>       0.83875408       0.18601251       0.80956002 </v>
   <v>       0.13267638       0.94525842       0.43516519 </v>
   <v>       0.18020030       0.78597420       0.17440848 </v>
   <v>       0.21633326       0.89346931       0.99950021 </v>
   <v>       0.14135359       0.14630636       0.41784500 </v>
   <v>       0.19344227       0.13194274       0.13770799 </v>
   <v>       0.60350127       0.24026590       0.81530568 </v>
   <v>       0.41739002       0.74450263       0.29422807 </v>
   <v>       0.93026320       0.77571992       0.25538515 </v>
   <v>       0.07892325       0.25406057       0.74536968 </v>
   <v>       0.32964625       0.01778545       0.76115535 </v>
   <v>       0.67188408       0.97772365       0.25939350 </v>
   <v>       0.17124034       0.47857208       0.23399682 </v>
   <v>       0.82769017       0.53267858       0.73384122 </v>
   <v>       0.41463766       0.24549936       0.27169352 </v>
   <v>       0.58093737       0.73609474       0.75121772 </v>
   <v>       0.08734635       0.75699202       0.71052875 </v>
   <v>       0.89458814       0.27328745       0.19840985 </v>
   <v>       0.65403242       0.39707151       0.38470517 </v>
   <v>       0.67408270       0.54844065       0.14621863 </v>
   <v>       0.39022385       0.49246861       0.89571627 </v>
   <v>       0.31358944       0.51585255       0.63866167 </v>
   <v>       0.84857770       0.04671676       0.59223614 </v>
   <v>       0.83749501       0.95339837       0.86657629 </v>
   <v>       0.19061936       0.89222196       0.12088650 </v>
   <v>       0.14897652       0.03852313       0.36215006 </v>
   <v>       0.49652637       0.99679690       0.02175762 </v>
   <v>       0.50167713       0.99680433       0.52340984 </v>
   <v>       0.99659296       0.50911089       0.48161564 </v>
   <v>       0.99786704       0.51320717       0.98191922 </v>
  </varray>
 </structure>
</modeling>
