hex-FASnI3                              
           1
    14.596022   -0.012254    0.024984
    -0.005854    8.609831   -0.111777
     0.017300   -0.105959    7.862139
   C    H    I    N    Sn
     4    20    12     8     4
Direct configuration=     1
   0.66171080  0.53133152  0.31043424
   0.32092794  0.46329473  0.79364960
   0.84157375  0.06670799  0.75819252
   0.17840279  0.02468392  0.20423763
   0.67540700  0.45670501  0.06013395
   0.65769325  0.29221527  0.31940117
   0.64292410  0.39366556  0.51323116
   0.67776577  0.65824318  0.10043528
   0.65775103  0.63703383  0.39080860
   0.36198129  0.58480063  0.58306749
   0.44604797  0.55680395  0.85855729
   0.39292333  0.44080218  0.01159022
   0.25663775  0.49060368  0.56800050
   0.26483928  0.39087858  0.83988944
   0.83904542  0.83817284  0.82887480
   0.85512513  0.93974488  0.53298757
   0.85391810  0.14044768  0.51559999
   0.83281608  0.97957510  0.99378847
   0.83875426  0.18600666  0.80956405
   0.13267537  0.94525892  0.43516536
   0.18020117  0.78598196  0.17440687
   0.21632836  0.89346839  0.99951861
   0.14135440  0.14628765  0.41784059
   0.19344254  0.13194018  0.13771378
   0.60350347  0.24026415  0.81530885
   0.41738816  0.74450304  0.29422371
   0.93026122  0.77571890  0.25538738
   0.07892483  0.25406207  0.74537327
   0.32964538  0.01778630  0.76115690
   0.67188205  0.97772220  0.25939331
   0.17124063  0.47857198  0.23399668
   0.82768648  0.53267514  0.73384011
   0.41463814  0.24549839  0.27169559
   0.58093621  0.73609689  0.75121213
   0.08734315  0.75699047  0.71052912
   0.89458677  0.27328962  0.19840717
   0.65403217  0.39705513  0.38469403
   0.67408408  0.54844398  0.14622266
   0.39021676  0.49245610  0.89572295
   0.31359799  0.51585798  0.63866062
   0.84857699  0.04671643  0.59223116
   0.83749589  0.95341463  0.86659470
   0.19062477  0.89221530  0.12085729
   0.14897300  0.03855538  0.36217012
   0.49652555  0.99679655  0.02175490
   0.50167728  0.99680583  0.52341117
   0.99659258  0.50910933  0.48161156
   0.99786504  0.51320851  0.98192029
hex-FASnI3                              
           1
    14.595965   -0.012288    0.024773
    -0.005873    8.609581   -0.112001
     0.017186   -0.106162    7.861966
   C    H    I    N    Sn
     4    20    12     8     4
Direct configuration=     2
   0.66170807  0.53128156  0.31038407
   0.32094728  0.46331788  0.79359419
   0.84157405  0.06666196  0.75815336
   0.17840262  0.02469025  0.20425351
   0.67539392  0.45675850  0.06020296
   0.65769125  0.29221095  0.31940351
   0.64293126  0.39366276  0.51319446
   0.67775682  0.65824365  0.10043677
   0.65775456  0.63701195  0.39078835
   0.36199124  0.58480630  0.58308489
   0.44601568  0.55678724  0.85855853
   0.39291543  0.44077940  0.01163641
   0.25662595  0.49059455  0.56802205
   0.26482608  0.39088326  0.83988495
   0.83904561  0.83822678  0.82889187
   0.85512213  0.93973056  0.53301682
   0.85391901  0.14045220  0.51559477
   0.83281258  0.97960812  0.99385982
   0.83875353  0.18603091  0.80954732
   0.13267955  0.94525685  0.43516466
   0.18019755  0.78594977  0.17441358
   0.21634866  0.89347223  0.99944233
   0.14135105  0.14636520  0.41785889
   0.19344140  0.13195080  0.13768980
   0.60349437  0.24027142  0.81529569
   0.41739587  0.74450133  0.29424178
   0.93026944  0.77572315  0.25537815
   0.07891827  0.25405587  0.74535837
   0.32964900  0.01778276  0.76115047
   0.67189048  0.97772821  0.25939411
   0.17123942  0.47857238  0.23399727
   0.82770177  0.53268939  0.73384472
   0.41463616  0.24550240  0.27168703
   0.58094101  0.73608798  0.75123531
   0.08735643  0.75699689  0.71052759
   0.89459245  0.27328061  0.19841830
   0.65403318  0.39712304  0.38474022
   0.67407834  0.54843017  0.14620594
   0.39024618  0.49250797  0.89569529
   0.31356256  0.51583546  0.63866498
   0.84857993  0.04671780  0.59225181
   0.83749223  0.95334722  0.86651838
   0.19060232  0.89224289  0.12097840
   0.14898759  0.03842166  0.36208695
   0.49652897  0.99679799  0.02176618
   0.50167668  0.99679960  0.52340568
   0.99659416  0.50911579  0.48162847
   0.99787335  0.51320298  0.98191586
hex-FASnI3                              
           1
    14.596008   -0.012262    0.024933
    -0.005859    8.609771   -0.111831
     0.017273   -0.106008    7.862097
   C    H    I    N    Sn
     4    20    12     8     4
Direct configuration=     3
   0.66171014  0.53131947  0.31042214
   0.32093260  0.46330032  0.79363623
   0.84157382  0.06669689  0.75818308
   0.17840275  0.02468545  0.20424146
   0.67540384  0.45671791  0.06015059
   0.65769277  0.29221423  0.31940174
   0.64292583  0.39366488  0.51322231
   0.67776361  0.65824330  0.10043564
   0.65775188  0.63702855  0.39080372
   0.36198369  0.58480200  0.58307169
   0.44604018  0.55679992  0.85855759
   0.39292142  0.44079669  0.01160136
   0.25663490  0.49060148  0.56800570
   0.26483610  0.39087971  0.83988836
   0.83904547  0.83818585  0.82887892
   0.85512441  0.93974142  0.53299462
   0.85391832  0.14044877  0.51559873
   0.83281523  0.97958306  0.99380568
   0.83875408  0.18601251  0.80956002
   0.13267638  0.94525842  0.43516519
   0.18020030  0.78597420  0.17440848
   0.21633326  0.89346931  0.99950021
   0.14135359  0.14630636  0.41784500
   0.19344227  0.13194274  0.13770799
   0.60350127  0.24026590  0.81530568
   0.41739002  0.74450263  0.29422807
   0.93026320  0.77571992  0.25538515
   0.07892325  0.25406057  0.74536968
   0.32964625  0.01778545  0.76115535
   0.67188408  0.97772365  0.25939350
   0.17124034  0.47857208  0.23399682
   0.82769017  0.53267858  0.73384122
   0.41463766  0.24549936  0.27169352
   0.58093737  0.73609474  0.75121772
   0.08734635  0.75699202  0.71052875
   0.89458814  0.27328745  0.19840985
   0.65403242  0.39707151  0.38470517
   0.67408270  0.54844065  0.14621863
   0.39022385  0.49246861  0.89571627
   0.31358944  0.51585255  0.63866167
   0.84857770  0.04671676  0.59223614
   0.83749501  0.95339837  0.86657629
   0.19061936  0.89222196  0.12088650
   0.14897652  0.03852313  0.36215006
   0.49652637  0.99679690  0.02175762
   0.50167713  0.99680433  0.52340984
   0.99659296  0.50911089  0.48161564
   0.99786704  0.51320717  0.98191922
