       N       E                     dE             d eps       ncg     rms          ort
DAV:   1     0.839857782173E+03    0.83986E+03   -0.89064E+04  1200   0.160E+03
DAV:   2    -0.457849871278E+03   -0.12977E+04   -0.12387E+04  1200   0.252E+02
DAV:   3    -0.635765712566E+03   -0.17792E+03   -0.17636E+03  1200   0.104E+02
DAV:   4    -0.641313146832E+03   -0.55474E+01   -0.55140E+01  1200   0.210E+01
DAV:   5    -0.641486908165E+03   -0.17376E+00   -0.17367E+00  1200   0.342E+00
SDA:   6    -0.575339354002E+03    0.66148E+02   -0.17367E+00  1200   0.723E+02 0.000E+00
CGA:   7    -0.587400756873E+03   -0.12061E+02   -0.12030E+02  1200   0.518E+01 0.127E-01
CGA:   8    -0.588933097918E+03   -0.15323E+01   -0.15286E+01  1200   0.170E+01 0.237E-01
CGA:   9    -0.589436604163E+03   -0.50351E+00   -0.50338E+00  1200   0.497E+00 0.202E-02
CGA:  10    -0.589588940493E+03   -0.15234E+00   -0.15232E+00  1200   0.140E+00-0.228E-04
CGA:  11    -0.589636851630E+03   -0.47911E-01   -0.47934E-01  1200   0.403E-01-0.213E-03
CGA:  12    -0.589649695999E+03   -0.12844E-01   -0.12844E-01  1200   0.902E-02 0.152E-04
CGA:  13    -0.589652897273E+03   -0.32013E-02   -0.32080E-02  1200   0.223E-02-0.494E-04
CGA:  14    -0.589653703670E+03   -0.80640E-03   -0.80580E-03  1200   0.502E-03 0.465E-05
CGA:  15    -0.589653891590E+03   -0.18792E-03   -0.18514E-03  1200   0.113E-03 0.213E-04
CGA:  16    -0.589653941103E+03   -0.49513E-04   -0.49067E-04  1200   0.310E-04 0.255E-05
CGA:  17    -0.589653954848E+03   -0.13746E-04   -0.14084E-04  1200   0.887E-05-0.178E-05
CGA:  18    -0.589653958093E+03   -0.32448E-05   -0.31521E-05  1200   0.237E-05 0.810E-06
   1 F= -.58965396E+03 E0= -.58965396E+03  d E =-.589654E+03
       N       E                     dE             d eps       ncg     rms          ort
SDA:   1    -0.567733871446E+03    0.21920E+02    0.00000E+00  1200   0.464E+02 0.000E+00
CGA:   2    -0.584196918697E+03   -0.16463E+02   -0.16447E+02  1200   0.149E+02 0.166E+00
CGA:   3    -0.588058283880E+03   -0.38614E+01   -0.38608E+01  1200   0.261E+01-0.148E-01
CGA:   4    -0.588705692767E+03   -0.64741E+00   -0.64769E+00  1200   0.562E+00 0.401E-02
CGA:   5    -0.588867937090E+03   -0.16224E+00   -0.16223E+00  1200   0.156E+00 0.497E-03
CGA:   6    -0.588920554041E+03   -0.52617E-01   -0.52607E-01  1200   0.522E-01 0.122E-03
CGA:   7    -0.588939146336E+03   -0.18592E-01   -0.18587E-01  1200   0.161E-01 0.512E-04
CGA:   8    -0.588944823907E+03   -0.56776E-02   -0.56766E-02  1200   0.391E-02 0.150E-04
CGA:   9    -0.588946199860E+03   -0.13760E-02   -0.13756E-02  1200   0.866E-03 0.582E-05
CGA:  10    -0.588946519857E+03   -0.32000E-03   -0.32033E-03  1200   0.215E-03-0.400E-05
CGA:  11    -0.588946603643E+03   -0.83786E-04   -0.83985E-04  1200   0.581E-04-0.198E-05
CGA:  12    -0.588946626798E+03   -0.23155E-04   -0.23093E-04  1200   0.165E-04 0.600E-06
CGA:  13    -0.588946633717E+03   -0.69189E-05   -0.69975E-05  1200   0.502E-05-0.675E-06
CGA:  14    -0.588946635696E+03   -0.19790E-05   -0.20067E-05  1200   0.149E-05-0.258E-06
   2 F= -.58894664E+03 E0= -.58894664E+03  d E =0.707322E+00
       N       E                     dE             d eps       ncg     rms          ort
SDA:   1    -0.580691699750E+03    0.82549E+01    0.00000E+00  1200   0.205E+02 0.000E+00
CGA:   2    -0.587852135455E+03   -0.71604E+01   -0.71642E+01  1200   0.666E+01-0.788E-01
CGA:   3    -0.589527601178E+03   -0.16755E+01   -0.16792E+01  1200   0.107E+01 0.154E-01
CGA:   4    -0.589801535099E+03   -0.27393E+00   -0.27384E+00  1200   0.217E+00-0.431E-03
CGA:   5    -0.589864479336E+03   -0.62944E-01   -0.62942E-01  1200   0.562E-01-0.126E-03
CGA:   6    -0.589883412948E+03   -0.18934E-01   -0.18932E-01  1200   0.188E-01 0.423E-04
CGA:   7    -0.589890277146E+03   -0.68642E-02   -0.68624E-02  1200   0.590E-02 0.365E-04
CGA:   8    -0.589892400998E+03   -0.21239E-02   -0.21240E-02  1200   0.145E-02-0.361E-05
CGA:   9    -0.589892908560E+03   -0.50756E-03   -0.50770E-03  1200   0.319E-03-0.406E-05
CGA:  10    -0.589893022271E+03   -0.11371E-03   -0.11366E-03  1200   0.733E-04 0.139E-05
CGA:  11    -0.589893050619E+03   -0.28348E-04   -0.28338E-04  1200   0.202E-04 0.154E-06
CGA:  12    -0.589893058747E+03   -0.81281E-05   -0.81509E-05  1200   0.564E-05-0.287E-06
CGA:  13    -0.589893060957E+03   -0.22091E-05   -0.22001E-05  1200   0.160E-05 0.138E-06
   3 F= -.58989306E+03 E0= -.58989306E+03  d E =-.239103E+00
       N       E                     dE             d eps       ncg     rms          ort
SDA:   1    -0.582605706718E+03    0.72874E+01    0.00000E+00  1200   0.174E+02 0.000E+00
CGA:   2    -0.588106876305E+03   -0.55012E+01   -0.55038E+01  1200   0.628E+01 0.499E-01
CGA:   3    -0.589756358058E+03   -0.16495E+01   -0.16483E+01  1200   0.105E+01-0.210E-02
CGA:   4    -0.590025605916E+03   -0.26925E+00   -0.26935E+00  1200   0.217E+00 0.513E-03
CGA:   5    -0.590088454298E+03   -0.62848E-01   -0.62860E-01  1200   0.579E-01 0.227E-03
CGA:   6    -0.590108211294E+03   -0.19757E-01   -0.19756E-01  1200   0.197E-01 0.513E-04
CGA:   7    -0.590115479465E+03   -0.72682E-02   -0.72691E-02  1200   0.608E-02-0.231E-04
CGA:   8    -0.590117612984E+03   -0.21335E-02   -0.21334E-02  1200   0.150E-02 0.538E-05
CGA:   9    -0.590118136474E+03   -0.52349E-03   -0.52334E-03  1200   0.331E-03 0.737E-05
CGA:  10    -0.590118262766E+03   -0.12629E-03   -0.12638E-03  1200   0.847E-04-0.183E-05
CGA:  11    -0.590118296630E+03   -0.33864E-04   -0.33972E-04  1200   0.235E-04-0.152E-05
CGA:  12    -0.590118305832E+03   -0.92019E-05   -0.91648E-05  1200   0.587E-05 0.597E-06
CGA:  13    -0.590118308469E+03   -0.26371E-05   -0.26443E-05  1200   0.174E-05-0.705E-07
   4 F= -.59011831E+03 E0= -.59011831E+03  d E =-.225248E+00
       N       E                     dE             d eps       ncg     rms          ort
SDA:   1    -0.589641430669E+03    0.47688E+00    0.00000E+00  1200   0.120E+01 0.000E+00
CGA:   2    -0.590010410247E+03   -0.36898E+00   -0.36888E+00  1200   0.438E+00-0.673E-03
CGA:   3    -0.590126915381E+03   -0.11651E+00   -0.11656E+00  1200   0.710E-01 0.146E-03
CGA:   4    -0.590144856692E+03   -0.17941E-01   -0.17941E-01  1200   0.137E-01 0.102E-04
CGA:   5    -0.590148773205E+03   -0.39165E-02   -0.39148E-02  1200   0.336E-02-0.312E-04
CGA:   6    -0.590149880893E+03   -0.11077E-02   -0.11077E-02  1200   0.107E-02-0.502E-05
CGA:   7    -0.590150273985E+03   -0.39309E-03   -0.39281E-03  1200   0.334E-03 0.932E-05
CGA:   8    -0.590150396432E+03   -0.12245E-03   -0.12244E-03  1200   0.869E-04 0.134E-06
CGA:   9    -0.590150427746E+03   -0.31315E-04   -0.31351E-04  1200   0.201E-04-0.174E-05
CGA:  10    -0.590150434956E+03   -0.72095E-05   -0.72029E-05  1200   0.466E-05 0.263E-06
CGA:  11    -0.590150436754E+03   -0.17979E-05   -0.17887E-05  1200   0.123E-05 0.236E-06
   5 F= -.59015044E+03 E0= -.59015044E+03  d E =-.257376E+00
       N       E                     dE             d eps       ncg     rms          ort
SDA:   1    -0.583787344954E+03    0.63631E+01    0.00000E+00  1200   0.145E+02 0.000E+00
CGA:   2    -0.588844406671E+03   -0.50571E+01   -0.50573E+01  1200   0.447E+01 0.419E-01
CGA:   3    -0.589997128903E+03   -0.11527E+01   -0.11514E+01  1200   0.778E+00-0.185E-02
CGA:   4    -0.590192295919E+03   -0.19517E+00   -0.19527E+00  1200   0.169E+00 0.444E-04
CGA:   5    -0.590240398688E+03   -0.48103E-01   -0.48108E-01  1200   0.456E-01 0.790E-04
CGA:   6    -0.590255983104E+03   -0.15584E-01   -0.15584E-01  1200   0.149E-01 0.139E-04
CGA:   7    -0.590261364233E+03   -0.53811E-02   -0.53814E-02  1200   0.452E-02-0.155E-04
CGA:   8    -0.590262931681E+03   -0.15674E-02   -0.15674E-02  1200   0.109E-02 0.444E-05
CGA:   9    -0.590263310681E+03   -0.37900E-03   -0.37897E-03  1200   0.244E-03 0.423E-05
CGA:  10    -0.590263401726E+03   -0.91045E-04   -0.91082E-04  1200   0.609E-04-0.121E-05
CGA:  11    -0.590263425137E+03   -0.23411E-04   -0.23427E-04  1200   0.156E-04-0.357E-06
CGA:  12    -0.590263431063E+03   -0.59256E-05   -0.59032E-05  1200   0.376E-05 0.632E-06
CGA:  13    -0.590263432669E+03   -0.16066E-05   -0.16074E-05  1200   0.107E-05-0.979E-08
   6 F= -.59026343E+03 E0= -.59026343E+03  d E =-.112996E+00
       N       E                     dE             d eps       ncg     rms          ort
SDA:   1    -0.589520044727E+03    0.74339E+00    0.00000E+00  1200   0.180E+01 0.000E+00
CGA:   2    -0.590136993822E+03   -0.61695E+00   -0.61690E+00  1200   0.562E+00-0.212E-02
CGA:   3    -0.590279273301E+03   -0.14228E+00   -0.14241E+00  1200   0.920E-01 0.262E-03
CGA:   4    -0.590302288357E+03   -0.23015E-01   -0.23012E-01  1200   0.185E-01 0.136E-04
CGA:   5    -0.590307469907E+03   -0.51816E-02   -0.51795E-02  1200   0.455E-02-0.324E-04
CGA:   6    -0.590308978259E+03   -0.15084E-02   -0.15084E-02  1200   0.143E-02-0.549E-06
CGA:   7    -0.590309500095E+03   -0.52184E-03   -0.52156E-03  1200   0.448E-03 0.114E-04
CGA:   8    -0.590309662124E+03   -0.16203E-03   -0.16203E-03  1200   0.116E-03-0.281E-06
CGA:   9    -0.590309703226E+03   -0.41102E-04   -0.41123E-04  1200   0.265E-04-0.155E-05
CGA:  10    -0.590309712675E+03   -0.94492E-05   -0.94439E-05  1200   0.614E-05 0.287E-06
CGA:  11    -0.590309715042E+03   -0.23669E-05   -0.23622E-05  1200   0.164E-05 0.123E-06
   7 F= -.59030972E+03 E0= -.59030972E+03  d E =-.159278E+00
       N       E                     dE             d eps       ncg     rms          ort
SDA:   1    -0.586619311098E+03    0.36904E+01    0.00000E+00  1200   0.900E+01 0.000E+00
CGA:   2    -0.589694652533E+03   -0.30753E+01   -0.30752E+01  1200   0.277E+01-0.106E-01
CGA:   3    -0.590392036235E+03   -0.69738E+00   -0.69865E+00  1200   0.441E+00 0.136E-02
CGA:   4    -0.590503641689E+03   -0.11161E+00   -0.11156E+00  1200   0.904E-01-0.130E-03
CGA:   5    -0.590528906233E+03   -0.25265E-01   -0.25267E-01  1200   0.215E-01 0.268E-04
CGA:   6    -0.590536195133E+03   -0.72889E-02   -0.72889E-02  1200   0.681E-02 0.139E-04
CGA:   7    -0.590538672847E+03   -0.24777E-02   -0.24780E-02  1200   0.213E-02-0.991E-05
CGA:   8    -0.590539424219E+03   -0.75137E-03   -0.75136E-03  1200   0.523E-03 0.985E-06
CGA:   9    -0.590539605184E+03   -0.18096E-03   -0.18094E-03  1200   0.113E-03 0.352E-05
CGA:  10    -0.590539647570E+03   -0.42386E-04   -0.42425E-04  1200   0.285E-04-0.120E-05
CGA:  11    -0.590539658608E+03   -0.11038E-04   -0.11073E-04  1200   0.776E-05-0.694E-06
CGA:  12    -0.590539661474E+03   -0.28662E-05   -0.28576E-05  1200   0.185E-05 0.253E-06
   8 F= -.59053966E+03 E0= -.59053966E+03  d E =-.229946E+00
       N       E                     dE             d eps       ncg     rms          ort
SDA:   1    -0.587640926808E+03    0.28987E+01    0.00000E+00  1200   0.681E+01 0.000E+00
CGA:   2    -0.589966269799E+03   -0.23253E+01   -0.23253E+01  1200   0.209E+01-0.726E-02
CGA:   3    -0.590493449226E+03   -0.52718E+00   -0.52794E+00  1200   0.330E+00 0.893E-03
CGA:   4    -0.590576820389E+03   -0.83371E-01   -0.83342E-01  1200   0.673E-01-0.841E-04
CGA:   5    -0.590595587742E+03   -0.18767E-01   -0.18769E-01  1200   0.159E-01 0.255E-04
CGA:   6    -0.590600963841E+03   -0.53761E-02   -0.53761E-02  1200   0.500E-02 0.109E-04
CGA:   7    -0.590602790382E+03   -0.18265E-02   -0.18268E-02  1200   0.158E-02-0.825E-05
CGA:   8    -0.590603349245E+03   -0.55886E-03   -0.55885E-03  1200   0.390E-03 0.968E-06
CGA:   9    -0.590603484329E+03   -0.13508E-03   -0.13506E-03  1200   0.849E-04 0.306E-05
CGA:  10    -0.590603516268E+03   -0.31939E-04   -0.31974E-04  1200   0.217E-04-0.989E-06
CGA:  11    -0.590603524689E+03   -0.84213E-05   -0.84550E-05  1200   0.598E-05-0.612E-06
CGA:  12    -0.590603526894E+03   -0.22047E-05   -0.21980E-05  1200   0.144E-05 0.191E-06
   9 F= -.59060353E+03 E0= -.59060353E+03  d E =-.293812E+00
       N       E                     dE             d eps       ncg     rms          ort
SDA:   1    -0.589150500332E+03    0.14530E+01    0.00000E+00  1200   0.366E+01 0.000E+00
CGA:   2    -0.590401761411E+03   -0.12513E+01   -0.12512E+01  1200   0.112E+01-0.235E-02
CGA:   3    -0.590688403097E+03   -0.28664E+00   -0.28688E+00  1200   0.183E+00 0.212E-03
CGA:   4    -0.590734987433E+03   -0.46584E-01   -0.46570E-01  1200   0.388E-01-0.504E-04
CGA:   5    -0.590745951508E+03   -0.10964E-01   -0.10965E-01  1200   0.970E-02 0.202E-04
CGA:   6    -0.590749287653E+03   -0.33361E-02   -0.33361E-02  1200   0.318E-02 0.397E-05
CGA:   7    -0.590750440744E+03   -0.11531E-02   -0.11533E-02  1200   0.993E-03-0.822E-05
CGA:   8    -0.590750785417E+03   -0.34467E-03   -0.34465E-03  1200   0.239E-03 0.195E-05
CGA:   9    -0.590750867439E+03   -0.82022E-04   -0.82009E-04  1200   0.518E-04 0.265E-05
CGA:  10    -0.590750887020E+03   -0.19581E-04   -0.19611E-04  1200   0.136E-04-0.814E-06
CGA:  11    -0.590750892231E+03   -0.52111E-05   -0.52297E-05  1200   0.383E-05-0.362E-06
CGA:  12    -0.590750893589E+03   -0.13575E-05   -0.13534E-05  1200   0.967E-06 0.200E-06
  10 F= -.59075089E+03 E0= -.59075089E+03  d E =-.147367E+00
       N       E                     dE             d eps       ncg     rms          ort
SDA:   1    -0.576738354485E+03    0.14013E+02    0.00000E+00  1200   0.326E+02 0.000E+00
CGA:   2    -0.587773178315E+03   -0.11035E+02   -0.11034E+02  1200   0.102E+02-0.909E-01
CGA:   3    -0.590336861612E+03   -0.25637E+01   -0.25740E+01  1200   0.172E+01 0.165E-01
CGA:   4    -0.590788040375E+03   -0.45118E+00   -0.45080E+00  1200   0.382E+00-0.165E-02
CGA:   5    -0.590898549875E+03   -0.11051E+00   -0.11052E+00  1200   0.103E+00-0.448E-04
CGA:   6    -0.590934805692E+03   -0.36256E-01   -0.36253E-01  1200   0.355E-01 0.784E-04
CGA:   7    -0.590947591408E+03   -0.12786E-01   -0.12787E-01  1200   0.107E-01-0.268E-04
CGA:   8    -0.590951268583E+03   -0.36772E-02   -0.36771E-02  1200   0.252E-02 0.112E-04
CGA:   9    -0.590952138408E+03   -0.86982E-03   -0.86976E-03  1200   0.544E-03 0.836E-05
CGA:  10    -0.590952339432E+03   -0.20102E-03   -0.20113E-03  1200   0.135E-03-0.329E-05
CGA:  11    -0.590952391325E+03   -0.51894E-04   -0.51957E-04  1200   0.373E-04-0.126E-05
CGA:  12    -0.590952405511E+03   -0.14186E-04   -0.14158E-04  1200   0.971E-05 0.675E-06
CGA:  13    -0.590952409447E+03   -0.39354E-05   -0.39261E-05  1200   0.290E-05 0.169E-06
  11 F= -.59095241E+03 E0= -.59095241E+03  d E =-.348883E+00
       N       E                     dE             d eps       ncg     rms          ort
SDA:   1    -0.589830962895E+03    0.11214E+01    0.00000E+00  1200   0.283E+01 0.000E+00
CGA:   2    -0.590788739728E+03   -0.95778E+00   -0.95774E+00  1200   0.893E+00-0.167E-02
CGA:   3    -0.591020637943E+03   -0.23190E+00   -0.23204E+00  1200   0.147E+00 0.178E-03
CGA:   4    -0.591058166286E+03   -0.37528E-01   -0.37520E-01  1200   0.318E-01-0.172E-04
CGA:   5    -0.591067329271E+03   -0.91630E-02   -0.91639E-02  1200   0.803E-02 0.158E-04
CGA:   6    -0.591070150000E+03   -0.28207E-02   -0.28207E-02  1200   0.276E-02 0.116E-05
CGA:   7    -0.591071153032E+03   -0.10030E-02   -0.10032E-02  1200   0.872E-03-0.637E-05
CGA:   8    -0.591071455480E+03   -0.30245E-03   -0.30243E-03  1200   0.209E-03 0.182E-05
CGA:   9    -0.591071527300E+03   -0.71820E-04   -0.71815E-04  1200   0.447E-04 0.248E-05
CGA:  10    -0.591071544280E+03   -0.16981E-04   -0.17003E-04  1200   0.118E-04-0.639E-06
CGA:  11    -0.591071548905E+03   -0.46248E-05   -0.46419E-05  1200   0.348E-05-0.300E-06
  12 F= -.59107155E+03 E0= -.59107155E+03  d E =-.119139E+00
       N       E                     dE             d eps       ncg     rms          ort
SDA:   1    -0.589600850988E+03    0.14707E+01    0.00000E+00  1200   0.346E+01 0.000E+00
CGA:   2    -0.590771938394E+03   -0.11711E+01   -0.11711E+01  1200   0.109E+01-0.237E-02
CGA:   3    -0.591055443646E+03   -0.28351E+00   -0.28370E+00  1200   0.179E+00 0.311E-03
CGA:   4    -0.591101187400E+03   -0.45744E-01   -0.45734E-01  1200   0.387E-01-0.269E-04
CGA:   5    -0.591112320653E+03   -0.11133E-01   -0.11134E-01  1200   0.976E-02 0.151E-04
CGA:   6    -0.591115751596E+03   -0.34309E-02   -0.34309E-02  1200   0.336E-02 0.532E-06
CGA:   7    -0.591116975372E+03   -0.12238E-02   -0.12240E-02  1200   0.107E-02-0.719E-05
CGA:   8    -0.591117346331E+03   -0.37096E-03   -0.37094E-03  1200   0.257E-03 0.185E-05
CGA:   9    -0.591117434894E+03   -0.88563E-04   -0.88546E-04  1200   0.553E-04 0.273E-05
CGA:  10    -0.591117455865E+03   -0.20971E-04   -0.20996E-04  1200   0.146E-04-0.656E-06
CGA:  11    -0.591117461600E+03   -0.57346E-05   -0.57544E-05  1200   0.432E-05-0.324E-06
CGA:  12    -0.591117463163E+03   -0.15627E-05   -0.15569E-05  1200   0.117E-05 0.236E-06
  13 F= -.59111746E+03 E0= -.59111746E+03  d E =-.165054E+00
       N       E                     dE             d eps       ncg     rms          ort
SDA:   1    -0.590201517602E+03    0.91594E+00    0.00000E+00  1200   0.241E+01 0.000E+00
CGA:   2    -0.590998370315E+03   -0.79685E+00   -0.79686E+00  1200   0.735E+00 0.226E-03
CGA:   3    -0.591192309877E+03   -0.19394E+00   -0.19397E+00  1200   0.123E+00 0.255E-04
CGA:   4    -0.591223557239E+03   -0.31247E-01   -0.31246E-01  1200   0.254E-01-0.424E-05
CGA:   5    -0.591230846834E+03   -0.72896E-02   -0.72908E-02  1200   0.619E-02 0.253E-04
CGA:   6    -0.591232977431E+03   -0.21306E-02   -0.21306E-02  1200   0.210E-02 0.283E-05
CGA:   7    -0.591233738374E+03   -0.76094E-03   -0.76113E-03  1200   0.680E-03-0.671E-05
CGA:   8    -0.591233978941E+03   -0.24057E-03   -0.24055E-03  1200   0.167E-03 0.111E-05
CGA:   9    -0.591234037399E+03   -0.58458E-04   -0.58433E-04  1200   0.358E-04 0.214E-05
CGA:  10    -0.591234051104E+03   -0.13705E-04   -0.13723E-04  1200   0.923E-05-0.445E-06
CGA:  11    -0.591234054824E+03   -0.37198E-05   -0.37403E-05  1200   0.272E-05-0.296E-06
  14 F= -.59123405E+03 E0= -.59123405E+03  d E =-.116592E+00
       N       E                     dE             d eps       ncg     rms          ort
SDA:   1    -0.584123706534E+03    0.71103E+01    0.00000E+00  1200   0.169E+02 0.000E+00
CGA:   2    -0.589707150877E+03   -0.55834E+01   -0.55836E+01  1200   0.517E+01 0.287E-02
CGA:   3    -0.591064225748E+03   -0.13571E+01   -0.13587E+01  1200   0.879E+00 0.477E-02
CGA:   4    -0.591287771883E+03   -0.22355E+00   -0.22351E+00  1200   0.183E+00-0.144E-04
CGA:   5    -0.591340629159E+03   -0.52857E-01   -0.52862E-01  1200   0.455E-01 0.692E-04
CGA:   6    -0.591356346554E+03   -0.15717E-01   -0.15717E-01  1200   0.155E-01 0.194E-04
CGA:   7    -0.591361959066E+03   -0.56125E-02   -0.56129E-02  1200   0.497E-02-0.131E-04
CGA:   8    -0.591363719485E+03   -0.17604E-02   -0.17603E-02  1200   0.122E-02 0.378E-05
CGA:   9    -0.591364147724E+03   -0.42824E-03   -0.42816E-03  1200   0.263E-03 0.560E-05
CGA:  10    -0.591364245929E+03   -0.98205E-04   -0.98254E-04  1200   0.651E-04-0.138E-05
CGA:  11    -0.591364272070E+03   -0.26141E-04   -0.26204E-04  1200   0.188E-04-0.960E-06
CGA:  12    -0.591364279457E+03   -0.73865E-05   -0.73668E-05  1200   0.498E-05 0.360E-06
CGA:  13    -0.591364281640E+03   -0.21832E-05   -0.21874E-05  1200   0.153E-05-0.376E-07
  15 F= -.59136428E+03 E0= -.59136428E+03  d E =-.246818E+00
       N       E                     dE             d eps       ncg     rms          ort
SDA:   1    -0.590782005049E+03    0.58227E+00    0.00000E+00  1200   0.158E+01 0.000E+00
CGA:   2    -0.591320757221E+03   -0.53875E+00   -0.53878E+00  1200   0.451E+00 0.792E-03
CGA:   3    -0.591440616341E+03   -0.11986E+00   -0.11984E+00  1200   0.742E-01-0.618E-04
CGA:   4    -0.591458972661E+03   -0.18356E-01   -0.18360E-01  1200   0.153E-01 0.427E-05
CGA:   5    -0.591463163477E+03   -0.41908E-02   -0.41923E-02  1200   0.356E-02 0.216E-04
CGA:   6    -0.591464344753E+03   -0.11813E-02   -0.11813E-02  1200   0.112E-02 0.568E-06
CGA:   7    -0.591464747929E+03   -0.40318E-03   -0.40328E-03  1200   0.377E-03-0.543E-05
CGA:   8    -0.591464881535E+03   -0.13361E-03   -0.13359E-03  1200   0.974E-04 0.140E-05
CGA:   9    -0.591464915396E+03   -0.33861E-04   -0.33855E-04  1200   0.210E-04 0.173E-05
CGA:  10    -0.591464923370E+03   -0.79743E-05   -0.79860E-05  1200   0.529E-05-0.363E-06
CGA:  11    -0.591464925426E+03   -0.20554E-05   -0.20662E-05  1200   0.150E-05-0.202E-06
  16 F= -.59146493E+03 E0= -.59146493E+03  d E =-.100644E+00
       N       E                     dE             d eps       ncg     rms          ort
SDA:   1    -0.587672520639E+03    0.37924E+01    0.00000E+00  1200   0.903E+01 0.000E+00
CGA:   2    -0.590740256963E+03   -0.30677E+01   -0.30679E+01  1200   0.256E+01 0.107E-01
CGA:   3    -0.591421996040E+03   -0.68174E+00   -0.68172E+00  1200   0.425E+00 0.347E-03
CGA:   4    -0.591526952319E+03   -0.10496E+00   -0.10499E+00  1200   0.887E-01 0.882E-04
CGA:   5    -0.591551182102E+03   -0.24230E-01   -0.24233E-01  1200   0.209E-01 0.535E-04
CGA:   6    -0.591558099920E+03   -0.69178E-02   -0.69178E-02  1200   0.653E-02 0.581E-05
CGA:   7    -0.591560451845E+03   -0.23519E-02   -0.23522E-02  1200   0.219E-02-0.953E-05
CGA:   8    -0.591561230555E+03   -0.77871E-03   -0.77862E-03  1200   0.568E-03 0.420E-05
CGA:   9    -0.591561428912E+03   -0.19836E-03   -0.19831E-03  1200   0.122E-03 0.418E-05
CGA:  10    -0.591561474325E+03   -0.45413E-04   -0.45441E-04  1200   0.295E-04-0.911E-06
CGA:  11    -0.591561485761E+03   -0.11436E-04   -0.11463E-04  1200   0.808E-05-0.514E-06
CGA:  12    -0.591561488770E+03   -0.30096E-05   -0.29976E-05  1200   0.210E-05 0.332E-06
  17 F= -.59156149E+03 E0= -.59156149E+03  d E =-.197207E+00
       N       E                     dE             d eps       ncg     rms          ort
SDA:   1    -0.591098207856E+03    0.46328E+00    0.00000E+00  1200   0.126E+01 0.000E+00
CGA:   2    -0.591520982294E+03   -0.42277E+00   -0.42277E+00  1200   0.355E+00-0.177E-03
CGA:   3    -0.591617111198E+03   -0.96129E-01   -0.96141E-01  1200   0.584E-01-0.481E-06
CGA:   4    -0.591631682124E+03   -0.14571E-01   -0.14570E-01  1200   0.124E-01 0.328E-05
CGA:   5    -0.591635089503E+03   -0.34074E-02   -0.34081E-02  1200   0.293E-02 0.110E-04
CGA:   6    -0.591636059182E+03   -0.96968E-03   -0.96967E-03  1200   0.959E-03-0.219E-05
CGA:   7    -0.591636401119E+03   -0.34194E-03   -0.34205E-03  1200   0.317E-03-0.512E-05
CGA:   8    -0.591636512363E+03   -0.11124E-03   -0.11124E-03  1200   0.795E-04 0.369E-06
CGA:   9    -0.591636539864E+03   -0.27500E-04   -0.27488E-04  1200   0.167E-04 0.146E-05
CGA:  10    -0.591636546230E+03   -0.63661E-05   -0.63747E-05  1200   0.428E-05-0.240E-06
CGA:  11    -0.591636547877E+03   -0.16474E-05   -0.16548E-05  1200   0.121E-05-0.135E-06
  18 F= -.59163655E+03 E0= -.59163655E+03  d E =-.750591E-01
       N       E                     dE             d eps       ncg     rms          ort
SDA:   1    -0.589995913758E+03    0.16406E+01    0.00000E+00  1200   0.396E+01 0.000E+00
CGA:   2    -0.591325938182E+03   -0.13300E+01   -0.13300E+01  1200   0.112E+01-0.109E-02
CGA:   3    -0.591628317562E+03   -0.30238E+00   -0.30248E+00  1200   0.184E+00 0.380E-03
CGA:   4    -0.591674334256E+03   -0.46017E-01   -0.46012E-01  1200   0.389E-01 0.600E-05
CGA:   5    -0.591685093913E+03   -0.10760E-01   -0.10761E-01  1200   0.925E-02 0.198E-04
CGA:   6    -0.591688162192E+03   -0.30683E-02   -0.30683E-02  1200   0.303E-02-0.228E-05
CGA:   7    -0.591689242794E+03   -0.10806E-02   -0.10808E-02  1200   0.992E-03-0.795E-05
CGA:   8    -0.591689592558E+03   -0.34976E-03   -0.34975E-03  1200   0.249E-03 0.730E-06
CGA:   9    -0.591689679312E+03   -0.86754E-04   -0.86718E-04  1200   0.528E-04 0.257E-05
CGA:  10    -0.591689699075E+03   -0.19763E-04   -0.19781E-04  1200   0.131E-04-0.476E-06
CGA:  11    -0.591689704143E+03   -0.50677E-05   -0.50826E-05  1200   0.367E-05-0.268E-06
CGA:  12    -0.591689705489E+03   -0.13463E-05   -0.13385E-05  1200   0.947E-06 0.226E-06
  19 F= -.59168971E+03 E0= -.59168971E+03  d E =-.128217E+00
       N       E                     dE             d eps       ncg     rms          ort
SDA:   1    -0.590663587135E+03    0.10261E+01    0.00000E+00  1200   0.255E+01 0.000E+00
CGA:   2    -0.591535317646E+03   -0.87173E+00   -0.87173E+00  1200   0.757E+00-0.936E-03
CGA:   3    -0.591739457616E+03   -0.20414E+00   -0.20424E+00  1200   0.127E+00 0.249E-03
CGA:   4    -0.591771249852E+03   -0.31792E-01   -0.31784E-01  1200   0.282E-01-0.162E-04
CGA:   5    -0.591779118802E+03   -0.78689E-02   -0.78696E-02  1200   0.730E-02 0.934E-05
CGA:   6    -0.591781594599E+03   -0.24758E-02   -0.24758E-02  1200   0.250E-02 0.156E-05
CGA:   7    -0.591782487571E+03   -0.89297E-03   -0.89309E-03  1200   0.800E-03-0.484E-05
CGA:   8    -0.591782764943E+03   -0.27737E-03   -0.27737E-03  1200   0.193E-03 0.206E-07
CGA:   9    -0.591782831768E+03   -0.66825E-04   -0.66805E-04  1200   0.413E-04 0.190E-05
CGA:  10    -0.591782847150E+03   -0.15382E-04   -0.15395E-04  1200   0.105E-04-0.389E-06
CGA:  11    -0.591782851290E+03   -0.41404E-05   -0.41569E-05  1200   0.306E-05-0.273E-06
  20 F= -.59178285E+03 E0= -.59178285E+03  d E =-.931458E-01
       N       E                     dE             d eps       ncg     rms          ort
SDA:   1    -0.589795845890E+03    0.19870E+01    0.00000E+00  1200   0.464E+01 0.000E+00
CGA:   2    -0.591377103855E+03   -0.15813E+01   -0.15813E+01  1200   0.138E+01-0.249E-02
CGA:   3    -0.591748650666E+03   -0.37155E+00   -0.37182E+00  1200   0.232E+00 0.838E-03
CGA:   4    -0.591806942355E+03   -0.58292E-01   -0.58271E-01  1200   0.514E-01-0.480E-04
CGA:   5    -0.591821357550E+03   -0.14415E-01   -0.14416E-01  1200   0.133E-01 0.935E-05
CGA:   6    -0.591825895230E+03   -0.45377E-02   -0.45376E-02  1200   0.457E-02 0.330E-05
CGA:   7    -0.591827529646E+03   -0.16344E-02   -0.16346E-02  1200   0.145E-02-0.645E-05
CGA:   8    -0.591828033473E+03   -0.50383E-03   -0.50382E-03  1200   0.350E-03 0.147E-06
CGA:   9    -0.591828154603E+03   -0.12113E-03   -0.12110E-03  1200   0.748E-04 0.252E-05
CGA:  10    -0.591828182324E+03   -0.27721E-04   -0.27740E-04  1200   0.189E-04-0.557E-06
CGA:  11    -0.591828189738E+03   -0.74140E-05   -0.74342E-05  1200   0.542E-05-0.338E-06
CGA:  12    -0.591828191820E+03   -0.20827E-05   -0.20727E-05  1200   0.145E-05 0.199E-06
  21 F= -.59182819E+03 E0= -.59182819E+03  d E =-.138486E+00
       N       E                     dE             d eps       ncg     rms          ort
SDA:   1    -0.591174968480E+03    0.65322E+00    0.00000E+00  1200   0.165E+01 0.000E+00
CGA:   2    -0.591737348877E+03   -0.56238E+00   -0.56238E+00  1200   0.514E+00-0.477E-03
CGA:   3    -0.591874751931E+03   -0.13740E+00   -0.13744E+00  1200   0.858E-01 0.782E-04
CGA:   4    -0.591896405020E+03   -0.21653E-01   -0.21650E-01  1200   0.186E-01-0.267E-05
CGA:   5    -0.591901751716E+03   -0.53467E-02   -0.53471E-02  1200   0.482E-02 0.679E-05
CGA:   6    -0.591903399436E+03   -0.16477E-02   -0.16477E-02  1200   0.167E-02-0.234E-06
CGA:   7    -0.591903988649E+03   -0.58921E-03   -0.58930E-03  1200   0.524E-03-0.454E-05
CGA:   8    -0.591904171854E+03   -0.18320E-03   -0.18320E-03  1200   0.128E-03 0.465E-06
CGA:   9    -0.591904216443E+03   -0.44589E-04   -0.44569E-04  1200   0.275E-04 0.175E-05
CGA:  10    -0.591904226932E+03   -0.10489E-04   -0.10505E-04  1200   0.720E-05-0.410E-06
CGA:  11    -0.591904229779E+03   -0.28473E-05   -0.28610E-05  1200   0.214E-05-0.207E-06
  22 F= -.59190423E+03 E0= -.59190423E+03  d E =-.760380E-01
       N       E                     dE             d eps       ncg     rms          ort
SDA:   1    -0.585488797676E+03    0.64154E+01    0.00000E+00  1200   0.149E+02 0.000E+00
CGA:   2    -0.590510933517E+03   -0.50221E+01   -0.50220E+01  1200   0.467E+01-0.152E-01
CGA:   3    -0.591745579413E+03   -0.12346E+01   -0.12365E+01  1200   0.789E+00 0.675E-02
CGA:   4    -0.591946203718E+03   -0.20062E+00   -0.20054E+00  1200   0.172E+00-0.134E-03
CGA:   5    -0.591996008225E+03   -0.49805E-01   -0.49807E-01  1200   0.455E-01 0.204E-04
CGA:   6    -0.592011629416E+03   -0.15621E-01   -0.15621E-01  1200   0.161E-01 0.158E-04
CGA:   7    -0.592017322402E+03   -0.56930E-02   -0.56932E-02  1200   0.501E-02-0.115E-04
CGA:   8    -0.592019078952E+03   -0.17566E-02   -0.17565E-02  1200   0.122E-02 0.202E-05
CGA:   9    -0.592019505518E+03   -0.42657E-03   -0.42649E-03  1200   0.264E-03 0.544E-05
CGA:  10    -0.592019603361E+03   -0.97843E-04   -0.97892E-04  1200   0.666E-04-0.146E-05
CGA:  11    -0.592019629719E+03   -0.26359E-04   -0.26413E-04  1200   0.197E-04-0.887E-06
CGA:  12    -0.592019637368E+03   -0.76491E-05   -0.76261E-05  1200   0.539E-05 0.441E-06
CGA:  13    -0.592019639645E+03   -0.22770E-05   -0.22718E-05  1200   0.167E-05 0.728E-07
  23 F= -.59201964E+03 E0= -.59201964E+03  d E =-.191448E+00
       N       E                     dE             d eps       ncg     rms          ort
SDA:   1    -0.591805980388E+03    0.21366E+00    0.00000E+00  1200   0.492E+00 0.000E+00
CGA:   2    -0.591972772811E+03   -0.16679E+00   -0.16679E+00  1200   0.153E+00-0.472E-04
CGA:   3    -0.592013710967E+03   -0.40938E-01   -0.40942E-01  1200   0.254E-01-0.116E-04
CGA:   4    -0.592020117031E+03   -0.64061E-02   -0.64058E-02  1200   0.544E-02 0.251E-05
CGA:   5    -0.592021682405E+03   -0.15654E-02   -0.15656E-02  1200   0.139E-02 0.328E-05
CGA:   6    -0.592022158468E+03   -0.47606E-03   -0.47606E-03  1200   0.481E-03-0.313E-06
CGA:   7    -0.592022329143E+03   -0.17067E-03   -0.17071E-03  1200   0.153E-03-0.222E-05
CGA:   8    -0.592022382617E+03   -0.53475E-04   -0.53473E-04  1200   0.374E-04 0.158E-06
CGA:   9    -0.592022395546E+03   -0.12929E-04   -0.12926E-04  1200   0.792E-05 0.832E-06
CGA:  10    -0.592022398642E+03   -0.30954E-05   -0.31041E-05  1200   0.215E-05-0.212E-06
  24 F= -.59202240E+03 E0= -.59202240E+03  d E =-.194207E+00
       N       E                     dE             d eps       ncg     rms          ort
SDA:   1    -0.591309309266E+03    0.71309E+00    0.00000E+00  1200   0.178E+01 0.000E+00
CGA:   2    -0.591898942852E+03   -0.58963E+00   -0.58963E+00  1200   0.574E+00-0.215E-03
CGA:   3    -0.592050550910E+03   -0.15161E+00   -0.15164E+00  1200   0.923E-01 0.660E-04
CGA:   4    -0.592073757678E+03   -0.23207E-01   -0.23205E-01  1200   0.176E-01-0.982E-06
CGA:   5    -0.592078851781E+03   -0.50941E-02   -0.50946E-02  1200   0.411E-02 0.951E-05
CGA:   6    -0.592080224765E+03   -0.13730E-02   -0.13730E-02  1200   0.136E-02-0.121E-05
CGA:   7    -0.592080711326E+03   -0.48656E-03   -0.48669E-03  1200   0.435E-03-0.521E-05
CGA:   8    -0.592080868824E+03   -0.15750E-03   -0.15749E-03  1200   0.113E-03 0.295E-06
CGA:   9    -0.592080908395E+03   -0.39571E-04   -0.39550E-04  1200   0.246E-04 0.146E-05
CGA:  10    -0.592080917691E+03   -0.92959E-05   -0.93063E-05  1200   0.636E-05-0.296E-06
CGA:  11    -0.592080920147E+03   -0.24563E-05   -0.24599E-05  1200   0.178E-05-0.737E-07
  25 F= -.59208092E+03 E0= -.59208092E+03  d E =-.585215E-01
       N       E                     dE             d eps       ncg     rms          ort
SDA:   1    -0.591962412368E+03    0.11851E+00    0.00000E+00  1200   0.285E+00 0.000E+00
CGA:   2    -0.592057073612E+03   -0.94661E-01   -0.94661E-01  1200   0.920E-01-0.955E-05
CGA:   3    -0.592081392531E+03   -0.24319E-01   -0.24319E-01  1200   0.148E-01-0.142E-04
CGA:   4    -0.592085101212E+03   -0.37087E-02   -0.37085E-02  1200   0.281E-02-0.670E-06
CGA:   5    -0.592085912067E+03   -0.81086E-03   -0.81102E-03  1200   0.653E-03 0.363E-05
CGA:   6    -0.592086129970E+03   -0.21790E-03   -0.21790E-03  1200   0.216E-03-0.853E-06
CGA:   7    -0.592086207590E+03   -0.77620E-04   -0.77684E-04  1200   0.703E-04-0.231E-05
CGA:   8    -0.592086232713E+03   -0.25123E-04   -0.25122E-04  1200   0.180E-04 0.373E-07
CGA:   9    -0.592086238938E+03   -0.62254E-05   -0.62197E-05  1200   0.386E-05 0.556E-06
CGA:  10    -0.592086240454E+03   -0.15163E-05   -0.15214E-05  1200   0.106E-05-0.106E-06
  26 F= -.59208624E+03 E0= -.59208624E+03  d E =-.638418E-01
       N       E                     dE             d eps       ncg     rms          ort
SDA:   1    -0.591900318887E+03    0.18592E+00    0.00000E+00  1200   0.530E+00 0.000E+00
CGA:   2    -0.592077600208E+03   -0.17728E+00   -0.17728E+00  1200   0.161E+00 0.246E-03
CGA:   3    -0.592120809010E+03   -0.43209E-01   -0.43200E-01  1200   0.251E-01-0.231E-04
CGA:   4    -0.592126999871E+03   -0.61909E-02   -0.61915E-02  1200   0.502E-02-0.780E-06
CGA:   5    -0.592128374750E+03   -0.13749E-02   -0.13755E-02  1200   0.115E-02 0.102E-04
CGA:   6    -0.592128753254E+03   -0.37850E-03   -0.37850E-03  1200   0.368E-03 0.777E-06
CGA:   7    -0.592128886302E+03   -0.13305E-03   -0.13314E-03  1200   0.124E-03-0.291E-05
CGA:   8    -0.592128930683E+03   -0.44381E-04   -0.44374E-04  1200   0.321E-04 0.219E-06
CGA:   9    -0.592128941915E+03   -0.11232E-04   -0.11220E-04  1200   0.692E-05 0.687E-06
CGA:  10    -0.592128944542E+03   -0.26268E-05   -0.26303E-05  1200   0.177E-05-0.985E-07
  27 F= -.59212894E+03 E0= -.59212894E+03  d E =-.427041E-01
       N       E                     dE             d eps       ncg     rms          ort
SDA:   1    -0.591419195527E+03    0.70975E+00    0.00000E+00  1200   0.171E+01 0.000E+00
CGA:   2    -0.591992962781E+03   -0.57377E+00   -0.57378E+00  1200   0.521E+00 0.145E-02
CGA:   3    -0.592132589292E+03   -0.13963E+00   -0.13958E+00  1200   0.812E-01-0.130E-03
CGA:   4    -0.592152557471E+03   -0.19968E-01   -0.19973E-01  1200   0.163E-01 0.748E-05
CGA:   5    -0.592157022190E+03   -0.44647E-02   -0.44658E-02  1200   0.374E-02 0.191E-04
CGA:   6    -0.592158252328E+03   -0.12301E-02   -0.12301E-02  1200   0.119E-02 0.251E-05
CGA:   7    -0.592158680949E+03   -0.42862E-03   -0.42875E-03  1200   0.397E-03-0.415E-05
CGA:   8    -0.592158824239E+03   -0.14329E-03   -0.14327E-03  1200   0.104E-03 0.715E-06
CGA:   9    -0.592158860856E+03   -0.36617E-04   -0.36590E-04  1200   0.226E-04 0.127E-05
CGA:  10    -0.592158869290E+03   -0.84342E-05   -0.84420E-05  1200   0.561E-05-0.202E-06
CGA:  11    -0.592158871458E+03   -0.21686E-05   -0.21747E-05  1200   0.157E-05-0.988E-07
  28 F= -.59215887E+03 E0= -.59215887E+03  d E =-.726310E-01
       N       E                     dE             d eps       ncg     rms          ort
SDA:   1    -0.591887549087E+03    0.27132E+00    0.00000E+00  1200   0.737E+00 0.000E+00
CGA:   2    -0.592127117249E+03   -0.23957E+00   -0.23957E+00  1200   0.218E+00 0.195E-03
CGA:   3    -0.592186429815E+03   -0.59313E-01   -0.59307E-01  1200   0.357E-01-0.220E-04
CGA:   4    -0.592195325337E+03   -0.88955E-02   -0.88963E-02  1200   0.723E-02 0.495E-05
CGA:   5    -0.592197316321E+03   -0.19910E-02   -0.19915E-02  1200   0.167E-02 0.917E-05
CGA:   6    -0.592197865775E+03   -0.54945E-03   -0.54945E-03  1200   0.537E-03 0.944E-07
CGA:   7    -0.592198060391E+03   -0.19462E-03   -0.19470E-03  1200   0.178E-03-0.241E-05
CGA:   8    -0.592198124120E+03   -0.63728E-04   -0.63700E-04  1200   0.450E-04 0.917E-06
CGA:   9    -0.592198139852E+03   -0.15733E-04   -0.15717E-04  1200   0.953E-05 0.943E-06
CGA:  10    -0.592198143486E+03   -0.36335E-05   -0.36425E-05  1200   0.244E-05-0.207E-06
  29 F= -.59219814E+03 E0= -.59219814E+03  d E =-.392720E-01
       N       E                     dE             d eps       ncg     rms          ort
SDA:   1    -0.589452169574E+03    0.27460E+01    0.00000E+00  1200   0.664E+01 0.000E+00
CGA:   2    -0.591611849550E+03   -0.21597E+01   -0.21598E+01  1200   0.196E+01 0.563E-02
CGA:   3    -0.592144792918E+03   -0.53294E+00   -0.53294E+00  1200   0.323E+00 0.298E-03
CGA:   4    -0.592225118761E+03   -0.80326E-01   -0.80337E-01  1200   0.659E-01 0.646E-04
CGA:   5    -0.592243266700E+03   -0.18148E-01   -0.18150E-01  1200   0.153E-01 0.322E-04
CGA:   6    -0.592248324164E+03   -0.50575E-02   -0.50574E-02  1200   0.496E-02 0.400E-05
CGA:   7    -0.592250114883E+03   -0.17907E-02   -0.17909E-02  1200   0.163E-02-0.471E-05
CGA:   8    -0.592250702831E+03   -0.58795E-03   -0.58784E-03  1200   0.416E-03 0.323E-05
CGA:   9    -0.592250849181E+03   -0.14635E-03   -0.14629E-03  1200   0.886E-04 0.297E-05
CGA:  10    -0.592250881890E+03   -0.32709E-04   -0.32732E-04  1200   0.214E-04-0.615E-06
CGA:  11    -0.592250890221E+03   -0.83309E-05   -0.83530E-05  1200   0.591E-05-0.368E-06
CGA:  12    -0.592250892469E+03   -0.22480E-05   -0.22340E-05  1200   0.154E-05 0.285E-06
  30 F= -.59225089E+03 E0= -.59225089E+03  d E =-.920210E-01
       N       E                     dE             d eps       ncg     rms          ort
SDA:   1    -0.591599047355E+03    0.65184E+00    0.00000E+00  1200   0.163E+01 0.000E+00
CGA:   2    -0.592132660180E+03   -0.53361E+00   -0.53361E+00  1200   0.485E+00 0.152E-04
CGA:   3    -0.592263918668E+03   -0.13126E+00   -0.13127E+00  1200   0.812E-01 0.290E-04
CGA:   4    -0.592284083173E+03   -0.20165E-01   -0.20164E-01  1200   0.166E-01 0.392E-05
CGA:   5    -0.592288714043E+03   -0.46309E-02   -0.46312E-02  1200   0.385E-02 0.475E-05
CGA:   6    -0.592290004971E+03   -0.12909E-02   -0.12909E-02  1200   0.125E-02-0.207E-05
CGA:   7    -0.592290456156E+03   -0.45118E-03   -0.45129E-03  1200   0.409E-03-0.346E-05
CGA:   8    -0.592290601960E+03   -0.14580E-03   -0.14578E-03  1200   0.102E-03 0.114E-05
CGA:   9    -0.592290637848E+03   -0.35888E-04   -0.35871E-04  1200   0.215E-04 0.109E-05
CGA:  10    -0.592290645943E+03   -0.80946E-05   -0.81072E-05  1200   0.527E-05-0.341E-06
CGA:  11    -0.592290647936E+03   -0.19936E-05   -0.19944E-05  1200   0.140E-05-0.196E-07
  31 F= -.59229065E+03 E0= -.59229065E+03  d E =-.397555E-01
       N       E                     dE             d eps       ncg     rms          ort
SDA:   1    -0.592095534073E+03    0.19511E+00    0.00000E+00  1200   0.473E+00 0.000E+00
CGA:   2    -0.592250327595E+03   -0.15479E+00   -0.15479E+00  1200   0.141E+00-0.769E-05
CGA:   3    -0.592288436927E+03   -0.38109E-01   -0.38109E-01  1200   0.235E-01-0.117E-04
CGA:   4    -0.592294279137E+03   -0.58422E-02   -0.58422E-02  1200   0.481E-02 0.994E-06
CGA:   5    -0.592295618059E+03   -0.13389E-02   -0.13390E-02  1200   0.111E-02 0.225E-05
CGA:   6    -0.592295991093E+03   -0.37303E-03   -0.37304E-03  1200   0.362E-03-0.150E-05
CGA:   7    -0.592296121937E+03   -0.13084E-03   -0.13091E-03  1200   0.119E-03-0.215E-05
CGA:   8    -0.592296164069E+03   -0.42132E-04   -0.42119E-04  1200   0.295E-04 0.530E-06
CGA:   9    -0.592296174374E+03   -0.10305E-04   -0.10297E-04  1200   0.617E-05 0.548E-06
CGA:  10    -0.592296176748E+03   -0.23748E-05   -0.23833E-05  1200   0.157E-05-0.181E-06
  32 F= -.59229618E+03 E0= -.59229618E+03  d E =-.452843E-01
       N       E                     dE             d eps       ncg     rms          ort
SDA:   1    -0.591800461806E+03    0.49571E+00    0.00000E+00  1200   0.128E+01 0.000E+00
CGA:   2    -0.592210965093E+03   -0.41050E+00   -0.41049E+00  1200   0.391E+00-0.373E-03
CGA:   3    -0.592315173513E+03   -0.10421E+00   -0.10423E+00  1200   0.674E-01 0.750E-04
CGA:   4    -0.592331832849E+03   -0.16659E-01   -0.16657E-01  1200   0.132E-01-0.352E-05
CGA:   5    -0.592335486687E+03   -0.36538E-02   -0.36539E-02  1200   0.300E-02 0.145E-05
CGA:   6    -0.592336458979E+03   -0.97229E-03   -0.97229E-03  1200   0.956E-03 0.210E-06
CGA:   7    -0.592336799729E+03   -0.34075E-03   -0.34082E-03  1200   0.308E-03-0.233E-05
CGA:   8    -0.592336912194E+03   -0.11246E-03   -0.11247E-03  1200   0.804E-04-0.283E-09
CGA:   9    -0.592336940468E+03   -0.28274E-04   -0.28253E-04  1200   0.175E-04 0.955E-06
CGA:  10    -0.592336946971E+03   -0.65032E-05   -0.65096E-05  1200   0.432E-05-0.171E-06
CGA:  11    -0.592336948647E+03   -0.16763E-05   -0.16814E-05  1200   0.124E-05-0.843E-07
  33 F= -.59233695E+03 E0= -.59233695E+03  d E =-.407719E-01
       N       E                     dE             d eps       ncg     rms          ort
SDA:   1    -0.591562920669E+03    0.77403E+00    0.00000E+00  1200   0.190E+01 0.000E+00
CGA:   2    -0.592168994808E+03   -0.60607E+00   -0.60604E+00  1200   0.579E+00-0.710E-03
CGA:   3    -0.592322986857E+03   -0.15399E+00   -0.15404E+00  1200   0.993E-01 0.177E-03
CGA:   4    -0.592347563387E+03   -0.24577E-01   -0.24573E-01  1200   0.194E-01-0.680E-05
CGA:   5    -0.592352948705E+03   -0.53853E-02   -0.53854E-02  1200   0.442E-02 0.791E-06
CGA:   6    -0.592354383020E+03   -0.14343E-02   -0.14343E-02  1200   0.141E-02 0.133E-06
CGA:   7    -0.592354886909E+03   -0.50389E-03   -0.50398E-03  1200   0.456E-03-0.278E-05
CGA:   8    -0.592355053744E+03   -0.16683E-03   -0.16684E-03  1200   0.119E-03-0.383E-07
CGA:   9    -0.592355095824E+03   -0.42080E-04   -0.42054E-04  1200   0.261E-04 0.115E-05
CGA:  10    -0.592355105483E+03   -0.96589E-05   -0.96667E-05  1200   0.642E-05-0.208E-06
CGA:  11    -0.592355107968E+03   -0.24849E-05   -0.24906E-05  1200   0.184E-05-0.900E-07
  34 F= -.59235511E+03 E0= -.59235511E+03  d E =-.589312E-01
       N       E                     dE             d eps       ncg     rms          ort
SDA:   1    -0.591610153199E+03    0.74495E+00    0.00000E+00  1200   0.182E+01 0.000E+00
CGA:   2    -0.592216669887E+03   -0.60652E+00   -0.60651E+00  1200   0.546E+00-0.872E-03
CGA:   3    -0.592359569165E+03   -0.14290E+00   -0.14296E+00  1200   0.920E-01 0.154E-03
CGA:   4    -0.592382190156E+03   -0.22621E-01   -0.22617E-01  1200   0.175E-01-0.870E-05
CGA:   5    -0.592387064752E+03   -0.48746E-02   -0.48747E-02  1200   0.397E-02 0.140E-05
CGA:   6    -0.592388344153E+03   -0.12794E-02   -0.12794E-02  1200   0.125E-02 0.193E-05
CGA:   7    -0.592388789657E+03   -0.44550E-03   -0.44558E-03  1200   0.413E-03-0.226E-05
CGA:   8    -0.592388941809E+03   -0.15215E-03   -0.15216E-03  1200   0.110E-03-0.240E-06
CGA:   9    -0.592388981045E+03   -0.39236E-04   -0.39205E-04  1200   0.241E-04 0.120E-05
CGA:  10    -0.592388990001E+03   -0.89561E-05   -0.89671E-05  1200   0.599E-05-0.305E-06
CGA:  11    -0.592388992273E+03   -0.22722E-05   -0.22817E-05  1200   0.167E-05-0.184E-06
  35 F= -.59238899E+03 E0= -.59238899E+03  d E =-.338843E-01
       N       E                     dE             d eps       ncg     rms          ort
SDA:   1    -0.592384351415E+03    0.46386E-02    0.00000E+00  1200   0.113E-01 0.000E+00
CGA:   2    -0.592388109668E+03   -0.37583E-02   -0.37583E-02  1200   0.336E-02 0.687E-05
CGA:   3    -0.592388995894E+03   -0.88623E-03   -0.88588E-03  1200   0.566E-03-0.489E-05
CGA:   4    -0.592389134510E+03   -0.13862E-03   -0.13861E-03  1200   0.107E-03-0.195E-07
CGA:   5    -0.592389164277E+03   -0.29767E-04   -0.29777E-04  1200   0.241E-04 0.189E-06
CGA:   6    -0.592389172046E+03   -0.77692E-05   -0.77695E-05  1200   0.762E-05 0.490E-07
CGA:   7    -0.592389174854E+03   -0.28075E-05   -0.28183E-05  1200   0.272E-05-0.250E-06
CGA:   8    -0.592389175815E+03   -0.96103E-06   -0.96247E-06  1200   0.704E-06-0.348E-07
  36 F= -.59238918E+03 E0= -.59238918E+03  d E =-.340678E-01
       N       E                     dE             d eps       ncg     rms          ort
SDA:   1    -0.592135333070E+03    0.25384E+00    0.00000E+00  1200   0.656E+00 0.000E+00
CGA:   2    -0.592354884781E+03   -0.21955E+00   -0.21955E+00  1200   0.183E+00 0.873E-04
CGA:   3    -0.592403848163E+03   -0.48963E-01   -0.48962E-01  1200   0.310E-01-0.169E-04
CGA:   4    -0.592411423799E+03   -0.75756E-02   -0.75759E-02  1200   0.607E-02 0.124E-05
CGA:   5    -0.592413064757E+03   -0.16410E-02   -0.16411E-02  1200   0.131E-02 0.366E-05
CGA:   6    -0.592413488727E+03   -0.42397E-03   -0.42398E-03  1200   0.387E-03-0.132E-05
CGA:   7    -0.592413628014E+03   -0.13929E-03   -0.13939E-03  1200   0.128E-03-0.250E-05
CGA:   8    -0.592413674324E+03   -0.46310E-04   -0.46303E-04  1200   0.339E-04 0.197E-06
CGA:   9    -0.592413686270E+03   -0.11946E-04   -0.11930E-04  1200   0.727E-05 0.584E-06
CGA:  10    -0.592413689070E+03   -0.28001E-05   -0.28083E-05  1200   0.183E-05-0.155E-06
  37 F= -.59241369E+03 E0= -.59241369E+03  d E =-.245133E-01
       N       E                     dE             d eps       ncg     rms          ort
SDA:   1    -0.591902323805E+03    0.51136E+00    0.00000E+00  1200   0.123E+01 0.000E+00
CGA:   2    -0.592315287048E+03   -0.41296E+00   -0.41296E+00  1200   0.345E+00 0.206E-03
CGA:   3    -0.592407432710E+03   -0.92146E-01   -0.92145E-01  1200   0.585E-01-0.149E-04
CGA:   4    -0.592421711392E+03   -0.14279E-01   -0.14279E-01  1200   0.115E-01 0.254E-05
CGA:   5    -0.592424812305E+03   -0.31009E-02   -0.31012E-02  1200   0.247E-02 0.468E-05
CGA:   6    -0.592425613144E+03   -0.80084E-03   -0.80084E-03  1200   0.732E-03-0.154E-05
CGA:   7    -0.592425876139E+03   -0.26300E-03   -0.26311E-03  1200   0.242E-03-0.309E-05
CGA:   8    -0.592425963659E+03   -0.87519E-04   -0.87506E-04  1200   0.640E-04 0.343E-06
CGA:   9    -0.592425986302E+03   -0.22644E-04   -0.22621E-04  1200   0.138E-04 0.806E-06
CGA:  10    -0.592425991550E+03   -0.52474E-05   -0.52588E-05  1200   0.340E-05-0.217E-06
CGA:  11    -0.592425992824E+03   -0.12748E-05   -0.12749E-05  1200   0.879E-06-0.106E-07
  38 F= -.59242599E+03 E0= -.59242599E+03  d E =-.368170E-01
       N       E                     dE             d eps       ncg     rms          ort
SDA:   1    -0.592326861872E+03    0.99130E-01    0.00000E+00  1200   0.276E+00 0.000E+00
CGA:   2    -0.592417981801E+03   -0.91120E-01   -0.91120E-01  1200   0.777E-01 0.179E-04
CGA:   3    -0.592438831517E+03   -0.20850E-01   -0.20849E-01  1200   0.133E-01-0.616E-05
CGA:   4    -0.592442102547E+03   -0.32710E-02   -0.32712E-02  1200   0.267E-02 0.184E-05
CGA:   5    -0.592442828749E+03   -0.72620E-03   -0.72635E-03  1200   0.593E-03 0.277E-05
CGA:   6    -0.592443024949E+03   -0.19620E-03   -0.19621E-03  1200   0.182E-03-0.734E-06
CGA:   7    -0.592443091257E+03   -0.66308E-04   -0.66374E-04  1200   0.610E-04-0.157E-05
CGA:   8    -0.592443112818E+03   -0.21560E-04   -0.21555E-04  1200   0.157E-04 0.159E-06
CGA:   9    -0.592443118224E+03   -0.54064E-05   -0.53992E-05  1200   0.329E-05 0.417E-06
CGA:  10    -0.592443119512E+03   -0.12882E-05   -0.12929E-05  1200   0.861E-06-0.866E-07
  39 F= -.59244312E+03 E0= -.59244312E+03  d E =-.171267E-01
       N       E                     dE             d eps       ncg     rms          ort
SDA:   1    -0.591426344374E+03    0.10168E+01    0.00000E+00  1200   0.249E+01 0.000E+00
CGA:   2    -0.592246174882E+03   -0.81983E+00   -0.81983E+00  1200   0.699E+00 0.383E-03
CGA:   3    -0.592433672024E+03   -0.18750E+00   -0.18752E+00  1200   0.120E+00 0.923E-04
CGA:   4    -0.592463255349E+03   -0.29583E-01   -0.29582E-01  1200   0.242E-01 0.214E-05
CGA:   5    -0.592469862321E+03   -0.66070E-02   -0.66074E-02  1200   0.542E-02 0.721E-05
CGA:   6    -0.592471658365E+03   -0.17960E-02   -0.17961E-02  1200   0.167E-02-0.979E-06
CGA:   7    -0.592472265291E+03   -0.60693E-03   -0.60707E-03  1200   0.554E-03-0.370E-05
CGA:   8    -0.592472463566E+03   -0.19827E-03   -0.19825E-03  1200   0.144E-03 0.717E-06
CGA:   9    -0.592472513841E+03   -0.50275E-04   -0.50245E-04  1200   0.306E-04 0.132E-05
CGA:  10    -0.592472525356E+03   -0.11515E-04   -0.11527E-04  1200   0.750E-05-0.267E-06
CGA:  11    -0.592472528221E+03   -0.28649E-05   -0.28658E-05  1200   0.201E-05-0.129E-07
  40 F= -.59247253E+03 E0= -.59247253E+03  d E =-.465354E-01
       N       E                     dE             d eps       ncg     rms          ort
SDA:   1    -0.592316142396E+03    0.15638E+00    0.00000E+00  1200   0.378E+00 0.000E+00
CGA:   2    -0.592440676629E+03   -0.12453E+00   -0.12453E+00  1200   0.106E+00 0.229E-04
CGA:   3    -0.592469170711E+03   -0.28494E-01   -0.28494E-01  1200   0.182E-01-0.685E-05
CGA:   4    -0.592473643487E+03   -0.44728E-02   -0.44728E-02  1200   0.365E-02 0.141E-05
CGA:   5    -0.592474635978E+03   -0.99249E-03   -0.99264E-03  1200   0.808E-03 0.274E-05
CGA:   6    -0.592474903005E+03   -0.26703E-03   -0.26703E-03  1200   0.248E-03-0.838E-06
CGA:   7    -0.592474993166E+03   -0.90160E-04   -0.90231E-04  1200   0.828E-04-0.176E-05
CGA:   8    -0.592475022599E+03   -0.29433E-04   -0.29428E-04  1200   0.214E-04 0.160E-06
CGA:   9    -0.592475030009E+03   -0.74097E-05   -0.74015E-05  1200   0.451E-05 0.471E-06
CGA:  10    -0.592475031758E+03   -0.17494E-05   -0.17546E-05  1200   0.116E-05-0.940E-07
  41 F= -.59247503E+03 E0= -.59247503E+03  d E =-.490389E-01
       N       E                     dE             d eps       ncg     rms          ort
SDA:   1    -0.592092649461E+03    0.38238E+00    0.00000E+00  1200   0.944E+00 0.000E+00
CGA:   2    -0.592413715061E+03   -0.32107E+00   -0.32106E+00  1200   0.272E+00 0.574E-04
CGA:   3    -0.592485517963E+03   -0.71803E-01   -0.71809E-01  1200   0.472E-01 0.411E-05
CGA:   4    -0.592497200455E+03   -0.11682E-01   -0.11682E-01  1200   0.966E-02 0.114E-05
CGA:   5    -0.592499918652E+03   -0.27182E-02   -0.27184E-02  1200   0.230E-02 0.389E-05
CGA:   6    -0.592500701432E+03   -0.78278E-03   -0.78279E-03  1200   0.748E-03-0.498E-06
CGA:   7    -0.592500971618E+03   -0.27019E-03   -0.27026E-03  1200   0.243E-03-0.214E-05
CGA:   8    -0.592501057100E+03   -0.85481E-04   -0.85469E-04  1200   0.605E-04 0.459E-06
CGA:   9    -0.592501078158E+03   -0.21059E-04   -0.21044E-04  1200   0.127E-04 0.794E-06
CGA:  10    -0.592501083053E+03   -0.48942E-05   -0.49057E-05  1200   0.326E-05-0.236E-06
  42 F= -.59250108E+03 E0= -.59250108E+03  d E =-.260513E-01
       N       E                     dE             d eps       ncg     rms          ort
SDA:   1    -0.591047100090E+03    0.14540E+01    0.00000E+00  1200   0.340E+01 0.000E+00
CGA:   2    -0.592204853298E+03   -0.11578E+01   -0.11577E+01  1200   0.981E+00 0.164E-03
CGA:   3    -0.592463767136E+03   -0.25891E+00   -0.25899E+00  1200   0.171E+00 0.250E-03
CGA:   4    -0.592506264019E+03   -0.42497E-01   -0.42491E-01  1200   0.353E-01-0.104E-04
CGA:   5    -0.592516218612E+03   -0.99546E-02   -0.99549E-02  1200   0.848E-02 0.538E-05
CGA:   6    -0.592519113546E+03   -0.28949E-02   -0.28949E-02  1200   0.277E-02 0.628E-06
CGA:   7    -0.592520113458E+03   -0.99991E-03   -0.10000E-02  1200   0.893E-03-0.311E-05
CGA:   8    -0.592520427806E+03   -0.31435E-03   -0.31432E-03  1200   0.222E-03 0.101E-05
CGA:   9    -0.592520505188E+03   -0.77383E-04   -0.77353E-04  1200   0.469E-04 0.150E-05
CGA:  10    -0.592520522862E+03   -0.17673E-04   -0.17694E-04  1200   0.117E-04-0.470E-06
CGA:  11    -0.592520527381E+03   -0.45195E-05   -0.45257E-05  1200   0.317E-05-0.103E-06
  43 F= -.59252053E+03 E0= -.59252053E+03  d E =-.454956E-01
       N       E                     dE             d eps       ncg     rms          ort
SDA:   1    -0.592098377435E+03    0.42215E+00    0.00000E+00  1200   0.103E+01 0.000E+00
CGA:   2    -0.592444749313E+03   -0.34637E+00   -0.34637E+00  1200   0.302E+00 0.160E-03
CGA:   3    -0.592523357779E+03   -0.78608E-01   -0.78607E-01  1200   0.538E-01-0.100E-04
CGA:   4    -0.592536609858E+03   -0.13252E-01   -0.13252E-01  1200   0.103E-01-0.115E-05
CGA:   5    -0.592539534340E+03   -0.29245E-02   -0.29247E-02  1200   0.240E-02 0.510E-05
CGA:   6    -0.592540330236E+03   -0.79590E-03   -0.79590E-03  1200   0.763E-03-0.123E-05
CGA:   7    -0.592540604193E+03   -0.27396E-03   -0.27405E-03  1200   0.245E-03-0.269E-05
CGA:   8    -0.592540692131E+03   -0.87938E-04   -0.87917E-04  1200   0.621E-04 0.687E-06
CGA:   9    -0.592540713941E+03   -0.21810E-04   -0.21794E-04  1200   0.133E-04 0.777E-06
CGA:  10    -0.592540719010E+03   -0.50694E-05   -0.50794E-05  1200   0.329E-05-0.217E-06
CGA:  11    -0.592540720258E+03   -0.12479E-05   -0.12475E-05  1200   0.894E-06 0.200E-08
  44 F= -.59254072E+03 E0= -.59254072E+03  d E =-.201929E-01
       N       E                     dE             d eps       ncg     rms          ort
SDA:   1    -0.592441754450E+03    0.98965E-01    0.00000E+00  1200   0.235E+00 0.000E+00
CGA:   2    -0.592521069574E+03   -0.79315E-01   -0.79315E-01  1200   0.694E-01 0.218E-04
CGA:   3    -0.592539112832E+03   -0.18043E-01   -0.18043E-01  1200   0.123E-01-0.485E-05
CGA:   4    -0.592542150095E+03   -0.30373E-02   -0.30373E-02  1200   0.236E-02 0.290E-06
CGA:   5    -0.592542816861E+03   -0.66677E-03   -0.66689E-03  1200   0.544E-03 0.265E-05
CGA:   6    -0.592542997356E+03   -0.18049E-03   -0.18050E-03  1200   0.173E-03-0.750E-06
CGA:   7    -0.592543059577E+03   -0.62221E-04   -0.62269E-04  1200   0.558E-04-0.140E-05
CGA:   8    -0.592543079468E+03   -0.19891E-04   -0.19882E-04  1200   0.140E-04 0.274E-06
CGA:   9    -0.592543084357E+03   -0.48885E-05   -0.48829E-05  1200   0.297E-05 0.352E-06
  45 F= -.59254308E+03 E0= -.59254308E+03  d E =-.225570E-01
       N       E                     dE             d eps       ncg     rms          ort
SDA:   1    -0.592366510273E+03    0.17657E+00    0.00000E+00  1200   0.450E+00 0.000E+00
CGA:   2    -0.592517601642E+03   -0.15109E+00   -0.15109E+00  1200   0.127E+00-0.197E-04
CGA:   3    -0.592551158020E+03   -0.33556E-01   -0.33557E-01  1200   0.219E-01-0.106E-04
CGA:   4    -0.592556475585E+03   -0.53176E-02   -0.53174E-02  1200   0.415E-02 0.238E-06
CGA:   5    -0.592557611367E+03   -0.11358E-02   -0.11359E-02  1200   0.875E-03 0.267E-05
CGA:   6    -0.592557896059E+03   -0.28469E-03   -0.28469E-03  1200   0.261E-03-0.953E-06
CGA:   7    -0.592557990117E+03   -0.94058E-04   -0.94131E-04  1200   0.856E-04-0.190E-05
CGA:   8    -0.592558021141E+03   -0.31024E-04   -0.31019E-04  1200   0.224E-04 0.121E-06
CGA:   9    -0.592558028988E+03   -0.78479E-05   -0.78386E-05  1200   0.478E-05 0.438E-06
CGA:  10    -0.592558030834E+03   -0.18457E-05   -0.18515E-05  1200   0.119E-05-0.107E-06
  46 F= -.59255803E+03 E0= -.59255803E+03  d E =-.149465E-01
       N       E                     dE             d eps       ncg     rms          ort
SDA:   1    -0.592238605112E+03    0.31942E+00    0.00000E+00  1200   0.768E+00 0.000E+00
CGA:   2    -0.592496123170E+03   -0.25752E+00   -0.25752E+00  1200   0.217E+00-0.494E-04
CGA:   3    -0.592553379785E+03   -0.57257E-01   -0.57261E-01  1200   0.374E-01-0.233E-05
CGA:   4    -0.592562462603E+03   -0.90828E-02   -0.90824E-02  1200   0.708E-02-0.682E-07
CGA:   5    -0.592564402719E+03   -0.19401E-02   -0.19403E-02  1200   0.149E-02 0.320E-05
CGA:   6    -0.592564888011E+03   -0.48529E-03   -0.48529E-03  1200   0.444E-03-0.114E-05
CGA:   7    -0.592565048283E+03   -0.16027E-03   -0.16036E-03  1200   0.145E-03-0.232E-05
CGA:   8    -0.592565101217E+03   -0.52934E-04   -0.52927E-04  1200   0.382E-04 0.165E-06
CGA:   9    -0.592565114651E+03   -0.13435E-04   -0.13421E-04  1200   0.819E-05 0.580E-06
CGA:  10    -0.592565117779E+03   -0.31278E-05   -0.31341E-05  1200   0.201E-05-0.135E-06
  47 F= -.59256512E+03 E0= -.59256512E+03  d E =-.220334E-01
       N       E                     dE             d eps       ncg     rms          ort
SDA:   1    -0.592400919755E+03    0.16419E+00    0.00000E+00  1200   0.420E+00 0.000E+00
CGA:   2    -0.592540333676E+03   -0.13941E+00   -0.13941E+00  1200   0.119E+00-0.656E-04
CGA:   3    -0.592571766880E+03   -0.31433E-01   -0.31437E-01  1200   0.205E-01-0.156E-05
CGA:   4    -0.592576839438E+03   -0.50726E-02   -0.50723E-02  1200   0.389E-02 0.548E-06
CGA:   5    -0.592577912896E+03   -0.10735E-02   -0.10735E-02  1200   0.869E-03 0.121E-05
CGA:   6    -0.592578193390E+03   -0.28049E-03   -0.28049E-03  1200   0.267E-03-0.133E-06
CGA:   7    -0.592578290725E+03   -0.97335E-04   -0.97374E-04  1200   0.881E-04-0.926E-06
CGA:   8    -0.592578322970E+03   -0.32245E-04   -0.32236E-04  1200   0.229E-04 0.230E-06
CGA:   9    -0.592578331014E+03   -0.80440E-05   -0.80334E-05  1200   0.494E-05 0.464E-06
CGA:  10    -0.592578332915E+03   -0.19004E-05   -0.19064E-05  1200   0.128E-05-0.127E-06
  48 F= -.59257833E+03 E0= -.59257833E+03  d E =-.132151E-01
       N       E                     dE             d eps       ncg     rms          ort
SDA:   1    -0.592154320561E+03    0.42401E+00    0.00000E+00  1200   0.102E+01 0.000E+00
CGA:   2    -0.592493694188E+03   -0.33937E+00   -0.33937E+00  1200   0.290E+00-0.327E-03
CGA:   3    -0.592570220606E+03   -0.76526E-01   -0.76545E-01  1200   0.498E-01 0.420E-04
CGA:   4    -0.592582575225E+03   -0.12355E-01   -0.12353E-01  1200   0.946E-02-0.260E-05
CGA:   5    -0.592585186933E+03   -0.26117E-02   -0.26118E-02  1200   0.212E-02 0.129E-05
CGA:   6    -0.592585869582E+03   -0.68265E-03   -0.68265E-03  1200   0.650E-03 0.119E-07
CGA:   7    -0.592586106241E+03   -0.23666E-03   -0.23671E-03  1200   0.214E-03-0.124E-05
CGA:   8    -0.592586184797E+03   -0.78557E-04   -0.78540E-04  1200   0.559E-04 0.389E-06
CGA:   9    -0.592586204523E+03   -0.19726E-04   -0.19707E-04  1200   0.122E-04 0.730E-06
CGA:  10    -0.592586209112E+03   -0.45894E-05   -0.45986E-05  1200   0.306E-05-0.203E-06
  49 F= -.59258621E+03 E0= -.59258621E+03  d E =-.210913E-01
       N       E                     dE             d eps       ncg     rms          ort
SDA:   1    -0.592424778520E+03    0.16143E+00    0.00000E+00  1200   0.411E+00 0.000E+00
CGA:   2    -0.592559181375E+03   -0.13440E+00   -0.13440E+00  1200   0.117E+00-0.592E-05
CGA:   3    -0.592590329611E+03   -0.31148E-01   -0.31149E-01  1200   0.209E-01-0.231E-05
CGA:   4    -0.592595439378E+03   -0.51098E-02   -0.51099E-02  1200   0.410E-02 0.288E-05
CGA:   5    -0.592596574285E+03   -0.11349E-02   -0.11350E-02  1200   0.913E-03 0.293E-05
CGA:   6    -0.592596877066E+03   -0.30278E-03   -0.30280E-03  1200   0.287E-03-0.194E-05
CGA:   7    -0.592596981267E+03   -0.10420E-03   -0.10427E-03  1200   0.937E-04-0.180E-05
CGA:   8    -0.592597014665E+03   -0.33399E-04   -0.33378E-04  1200   0.234E-04 0.616E-06
CGA:   9    -0.592597022800E+03   -0.81347E-05   -0.81260E-05  1200   0.499E-05 0.490E-06
CGA:  10    -0.592597024733E+03   -0.19334E-05   -0.19411E-05  1200   0.128E-05-0.150E-06
  50 F= -.59259702E+03 E0= -.59259702E+03  d E =-.108156E-01
       N       E                     dE             d eps       ncg     rms          ort
SDA:   1    -0.592423531291E+03    0.17349E+00    0.00000E+00  1200   0.423E+00 0.000E+00
CGA:   2    -0.592561751466E+03   -0.13822E+00   -0.13822E+00  1200   0.120E+00-0.528E-05
CGA:   3    -0.592593804665E+03   -0.32053E-01   -0.32054E-01  1200   0.215E-01-0.147E-05
CGA:   4    -0.592599062802E+03   -0.52581E-02   -0.52583E-02  1200   0.422E-02 0.283E-05
CGA:   5    -0.592600230064E+03   -0.11673E-02   -0.11674E-02  1200   0.938E-03 0.297E-05
CGA:   6    -0.592600541130E+03   -0.31107E-03   -0.31108E-03  1200   0.294E-03-0.189E-05
CGA:   7    -0.592600648105E+03   -0.10697E-03   -0.10705E-03  1200   0.962E-04-0.179E-05
CGA:   8    -0.592600682417E+03   -0.34312E-04   -0.34292E-04  1200   0.241E-04 0.618E-06
CGA:   9    -0.592600690783E+03   -0.83662E-05   -0.83576E-05  1200   0.513E-05 0.485E-06
CGA:  10    -0.592600692770E+03   -0.19869E-05   -0.19959E-05  1200   0.132E-05-0.156E-06
  51 F= -.59260069E+03 E0= -.59260069E+03  d E =-.144837E-01
       N       E                     dE             d eps       ncg     rms          ort
SDA:   1    -0.592363389495E+03    0.23730E+00    0.00000E+00  1200   0.599E+00 0.000E+00
CGA:   2    -0.592559931477E+03   -0.19654E+00   -0.19654E+00  1200   0.168E+00 0.372E-04
CGA:   3    -0.592604802215E+03   -0.44871E-01   -0.44870E-01  1200   0.291E-01-0.102E-04
CGA:   4    -0.592611956516E+03   -0.71543E-02   -0.71548E-02  1200   0.569E-02 0.416E-05
CGA:   5    -0.592613530770E+03   -0.15743E-02   -0.15745E-02  1200   0.125E-02 0.527E-05
CGA:   6    -0.592613946597E+03   -0.41583E-03   -0.41585E-03  1200   0.386E-03-0.232E-05
CGA:   7    -0.592614088548E+03   -0.14195E-03   -0.14208E-03  1200   0.127E-03-0.282E-05
CGA:   8    -0.592614133712E+03   -0.45164E-04   -0.45149E-04  1200   0.319E-04 0.479E-06
CGA:   9    -0.592614144736E+03   -0.11025E-04   -0.11015E-04  1200   0.680E-05 0.613E-06
CGA:  10    -0.592614147338E+03   -0.26013E-05   -0.26078E-05  1200   0.172E-05-0.147E-06
  52 F= -.59261415E+03 E0= -.59261415E+03  d E =-.134546E-01
       N       E                     dE             d eps       ncg     rms          ort
SDA:   1    -0.591142641647E+03    0.14715E+01    0.00000E+00  1200   0.355E+01 0.000E+00
CGA:   2    -0.592305854857E+03   -0.11632E+01   -0.11632E+01  1200   0.997E+00 0.558E-03
CGA:   3    -0.592571862042E+03   -0.26601E+00   -0.26603E+00  1200   0.174E+00 0.181E-03
CGA:   4    -0.592614554372E+03   -0.42692E-01   -0.42695E-01  1200   0.339E-01 0.250E-04
CGA:   5    -0.592623965533E+03   -0.94112E-02   -0.94119E-02  1200   0.749E-02 0.143E-04
CGA:   6    -0.592626461660E+03   -0.24961E-02   -0.24962E-02  1200   0.232E-02-0.315E-05
CGA:   7    -0.592627313760E+03   -0.85210E-03   -0.85232E-03  1200   0.755E-03-0.520E-05
CGA:   8    -0.592627585777E+03   -0.27202E-03   -0.27196E-03  1200   0.192E-03 0.155E-05
CGA:   9    -0.592627652488E+03   -0.66710E-04   -0.66679E-04  1200   0.410E-04 0.157E-05
CGA:  10    -0.592627667738E+03   -0.15251E-04   -0.15266E-04  1200   0.987E-05-0.387E-06
CGA:  11    -0.592627671498E+03   -0.37595E-05   -0.37616E-05  1200   0.256E-05-0.421E-07
  53 F= -.59262767E+03 E0= -.59262767E+03  d E =-.269787E-01
       N       E                     dE             d eps       ncg     rms          ort
SDA:   1    -0.592589443406E+03    0.38224E-01    0.00000E+00  1200   0.108E+00 0.000E+00
CGA:   2    -0.592624723954E+03   -0.35281E-01   -0.35281E-01  1200   0.301E-01 0.104E-04
CGA:   3    -0.592632764238E+03   -0.80403E-02   -0.80400E-02  1200   0.524E-02-0.390E-05
CGA:   4    -0.592634050459E+03   -0.12862E-02   -0.12863E-02  1200   0.102E-02 0.138E-05
CGA:   5    -0.592634331648E+03   -0.28119E-03   -0.28131E-03  1200   0.225E-03 0.238E-05
CGA:   6    -0.592634406072E+03   -0.74424E-04   -0.74427E-04  1200   0.695E-04-0.467E-06
CGA:   7    -0.592634431642E+03   -0.25570E-04   -0.25616E-04  1200   0.231E-04-0.103E-05
CGA:   8    -0.592634439769E+03   -0.81269E-05   -0.81239E-05  1200   0.582E-05 0.110E-06
CGA:   9    -0.592634441741E+03   -0.19717E-05   -0.19694E-05  1200   0.123E-05 0.247E-06
  54 F= -.59263444E+03 E0= -.59263444E+03  d E =-.677024E-02
       N       E                     dE             d eps       ncg     rms          ort
SDA:   1    -0.592247019207E+03    0.38742E+00    0.00000E+00  1200   0.973E+00 0.000E+00
CGA:   2    -0.592564582044E+03   -0.31756E+00   -0.31756E+00  1200   0.271E+00 0.680E-04
CGA:   3    -0.592636983410E+03   -0.72401E-01   -0.72404E-01  1200   0.472E-01 0.555E-05
CGA:   4    -0.592648580181E+03   -0.11597E-01   -0.11597E-01  1200   0.923E-02 0.487E-05
CGA:   5    -0.592651119995E+03   -0.25398E-02   -0.25402E-02  1200   0.203E-02 0.697E-05
CGA:   6    -0.592651791888E+03   -0.67189E-03   -0.67190E-03  1200   0.624E-03-0.841E-06
CGA:   7    -0.592652020219E+03   -0.22833E-03   -0.22845E-03  1200   0.204E-03-0.263E-05
CGA:   8    -0.592652093392E+03   -0.73173E-04   -0.73157E-04  1200   0.524E-04 0.425E-06
CGA:   9    -0.592652111574E+03   -0.18183E-04   -0.18167E-04  1200   0.113E-04 0.781E-06
CGA:  10    -0.592652115852E+03   -0.42773E-05   -0.42849E-05  1200   0.282E-05-0.159E-06
  55 F= -.59265212E+03 E0= -.59265212E+03  d E =-.244444E-01
       N       E                     dE             d eps       ncg     rms          ort
SDA:   1    -0.591056240552E+03    0.15959E+01    0.00000E+00  1200   0.389E+01 0.000E+00
CGA:   2    -0.592325232763E+03   -0.12690E+01   -0.12690E+01  1200   0.109E+01 0.295E-03
CGA:   3    -0.592614833085E+03   -0.28960E+00   -0.28966E+00  1200   0.189E+00 0.294E-03
CGA:   4    -0.592661459554E+03   -0.46626E-01   -0.46628E-01  1200   0.370E-01 0.176E-04
CGA:   5    -0.592671668505E+03   -0.10209E-01   -0.10210E-01  1200   0.818E-02 0.144E-04
CGA:   6    -0.592674374966E+03   -0.27065E-02   -0.27065E-02  1200   0.252E-02 0.510E-06
CGA:   7    -0.592675297498E+03   -0.92253E-03   -0.92270E-03  1200   0.820E-03-0.384E-05
CGA:   8    -0.592675593911E+03   -0.29641E-03   -0.29637E-03  1200   0.212E-03 0.121E-05
CGA:   9    -0.592675667860E+03   -0.73949E-04   -0.73914E-04  1200   0.461E-04 0.165E-05
CGA:  10    -0.592675684977E+03   -0.17117E-04   -0.17131E-04  1200   0.112E-04-0.335E-06
CGA:  11    -0.592675689320E+03   -0.43422E-05   -0.43502E-05  1200   0.297E-05-0.127E-06
  56 F= -.59267569E+03 E0= -.59267569E+03  d E =-.480178E-01
       N       E                     dE             d eps       ncg     rms          ort
SDA:   1    -0.586208454050E+03    0.64672E+01    0.00000E+00  1200   0.156E+02 0.000E+00
CGA:   2    -0.591268323593E+03   -0.50599E+01   -0.50599E+01  1200   0.437E+01 0.100E-02
CGA:   3    -0.592427757038E+03   -0.11594E+01   -0.11605E+01  1200   0.767E+00 0.503E-02
CGA:   4    -0.592617649306E+03   -0.18989E+00   -0.18989E+00  1200   0.150E+00 0.158E-03
CGA:   5    -0.592659394090E+03   -0.41745E-01   -0.41748E-01  1200   0.339E-01 0.526E-04
CGA:   6    -0.592670661486E+03   -0.11267E-01   -0.11267E-01  1200   0.107E-01 0.160E-04
CGA:   7    -0.592674568287E+03   -0.39068E-02   -0.39069E-02  1200   0.345E-02-0.179E-05
CGA:   8    -0.592675821885E+03   -0.12536E-02   -0.12535E-02  1200   0.890E-03 0.407E-05
CGA:   9    -0.592676133253E+03   -0.31137E-03   -0.31129E-03  1200   0.193E-03 0.375E-05
CGA:  10    -0.592676204245E+03   -0.70992E-04   -0.71018E-04  1200   0.460E-04-0.732E-06
CGA:  11    -0.592676222118E+03   -0.17873E-04   -0.17894E-04  1200   0.123E-04-0.365E-06
CGA:  12    -0.592676227043E+03   -0.49254E-05   -0.49157E-05  1200   0.348E-05 0.148E-06
  57 F= -.59267623E+03 E0= -.59267623E+03  d E =-.485555E-01
       N       E                     dE             d eps       ncg     rms          ort
SDA:   1    -0.591133904153E+03    0.15423E+01    0.00000E+00  1200   0.372E+01 0.000E+00
CGA:   2    -0.592348716498E+03   -0.12148E+01   -0.12148E+01  1200   0.104E+01-0.266E-03
CGA:   3    -0.592625464152E+03   -0.27675E+00   -0.27682E+00  1200   0.181E+00 0.330E-03
CGA:   4    -0.592669986967E+03   -0.44523E-01   -0.44519E-01  1200   0.357E-01-0.110E-05
CGA:   5    -0.592679826994E+03   -0.98400E-02   -0.98395E-02  1200   0.784E-02-0.107E-04
CGA:   6    -0.592682420977E+03   -0.25940E-02   -0.25940E-02  1200   0.241E-02 0.556E-05
CGA:   7    -0.592683295512E+03   -0.87454E-03   -0.87428E-03  1200   0.775E-03 0.765E-05
CGA:   8    -0.592683577317E+03   -0.28181E-03   -0.28179E-03  1200   0.203E-03 0.341E-06
CGA:   9    -0.592683648940E+03   -0.71623E-04   -0.71645E-04  1200   0.447E-04-0.112E-05
CGA:  10    -0.592683665100E+03   -0.16160E-04   -0.16153E-04  1200   0.104E-04 0.264E-06
CGA:  11    -0.592683669186E+03   -0.40862E-05   -0.40813E-05  1200   0.272E-05 0.880E-07
  58 F= -.59268367E+03 E0= -.59268367E+03  d E =-.559977E-01
       N       E                     dE             d eps       ncg     rms          ort
SDA:   1    -0.592166533940E+03    0.51713E+00    0.00000E+00  1200   0.129E+01 0.000E+00
CGA:   2    -0.592587483201E+03   -0.42095E+00   -0.42095E+00  1200   0.358E+00 0.146E-03
CGA:   3    -0.592683140659E+03   -0.95657E-01   -0.95660E-01  1200   0.632E-01 0.505E-05
CGA:   4    -0.592698583385E+03   -0.15443E-01   -0.15443E-01  1200   0.124E-01 0.416E-05
CGA:   5    -0.592701995319E+03   -0.34119E-02   -0.34124E-02  1200   0.273E-02 0.767E-05
CGA:   6    -0.592702897874E+03   -0.90255E-03   -0.90255E-03  1200   0.833E-03-0.141E-05
CGA:   7    -0.592703202257E+03   -0.30438E-03   -0.30449E-03  1200   0.269E-03-0.305E-05
CGA:   8    -0.592703299130E+03   -0.96872E-04   -0.96853E-04  1200   0.686E-04 0.687E-06
CGA:   9    -0.592703323003E+03   -0.23873E-04   -0.23861E-04  1200   0.148E-04 0.910E-06
CGA:  10    -0.592703328549E+03   -0.55461E-05   -0.55516E-05  1200   0.363E-05-0.146E-06
CGA:  11    -0.592703329960E+03   -0.14103E-05   -0.14135E-05  1200   0.951E-06-0.545E-07
  59 F= -.59270333E+03 E0= -.59270333E+03  d E =-.196608E-01
       N       E                     dE             d eps       ncg     rms          ort
SDA:   1    -0.590592104504E+03    0.21112E+01    0.00000E+00  1200   0.511E+01 0.000E+00
CGA:   2    -0.592258935097E+03   -0.16668E+01   -0.16669E+01  1200   0.142E+01 0.101E-02
CGA:   3    -0.592638345742E+03   -0.37941E+00   -0.37950E+00  1200   0.252E+00 0.401E-03
CGA:   4    -0.592699982633E+03   -0.61637E-01   -0.61639E-01  1200   0.496E-01 0.209E-04
CGA:   5    -0.592713648101E+03   -0.13665E-01   -0.13666E-01  1200   0.110E-01 0.160E-04
CGA:   6    -0.592717296592E+03   -0.36485E-02   -0.36485E-02  1200   0.340E-02 0.155E-06
CGA:   7    -0.592718538611E+03   -0.12420E-02   -0.12422E-02  1200   0.110E-02-0.430E-05
CGA:   8    -0.592718935218E+03   -0.39661E-03   -0.39655E-03  1200   0.280E-03 0.185E-05
CGA:   9    -0.592719033131E+03   -0.97913E-04   -0.97882E-04  1200   0.607E-04 0.192E-05
CGA:  10    -0.592719055571E+03   -0.22440E-04   -0.22450E-04  1200   0.146E-04-0.308E-06
CGA:  11    -0.592719061251E+03   -0.56797E-05   -0.56869E-05  1200   0.384E-05-0.136E-06
CGA:  12    -0.592719062777E+03   -0.15259E-05   -0.15164E-05  1200   0.101E-05 0.149E-06
  60 F= -.59271906E+03 E0= -.59271906E+03  d E =-.353936E-01
       N       E                     dE             d eps       ncg     rms          ort
SDA:   1    -0.591704162053E+03    0.10149E+01    0.00000E+00  1200   0.250E+01 0.000E+00
CGA:   2    -0.592514277851E+03   -0.81012E+00   -0.81012E+00  1200   0.704E+00 0.231E-04
CGA:   3    -0.592702935862E+03   -0.18866E+00   -0.18870E+00  1200   0.121E+00 0.130E-03
CGA:   4    -0.592733056688E+03   -0.30121E-01   -0.30120E-01  1200   0.239E-01 0.248E-05
CGA:   5    -0.592739651327E+03   -0.65946E-02   -0.65951E-02  1200   0.537E-02 0.723E-05
CGA:   6    -0.592741417487E+03   -0.17662E-02   -0.17662E-02  1200   0.165E-02-0.147E-05
CGA:   7    -0.592742023589E+03   -0.60610E-03   -0.60622E-03  1200   0.531E-03-0.333E-05
CGA:   8    -0.592742216536E+03   -0.19295E-03   -0.19291E-03  1200   0.135E-03 0.109E-05
CGA:   9    -0.592742263570E+03   -0.47033E-04   -0.47017E-04  1200   0.290E-04 0.120E-05
CGA:  10    -0.592742274322E+03   -0.10752E-04   -0.10759E-04  1200   0.708E-05-0.202E-06
CGA:  11    -0.592742277053E+03   -0.27305E-05   -0.27342E-05  1200   0.187E-05-0.769E-07
  61 F= -.59274228E+03 E0= -.59274228E+03  d E =-.232143E-01
       N       E                     dE             d eps       ncg     rms          ort
SDA:   1    -0.591232429906E+03    0.15098E+01    0.00000E+00  1200   0.366E+01 0.000E+00
CGA:   2    -0.592418274321E+03   -0.11858E+01   -0.11858E+01  1200   0.103E+01 0.139E-04
CGA:   3    -0.592694566287E+03   -0.27629E+00   -0.27637E+00  1200   0.178E+00 0.296E-03
CGA:   4    -0.592738746723E+03   -0.44180E-01   -0.44178E-01  1200   0.351E-01 0.411E-05
CGA:   5    -0.592748422801E+03   -0.96761E-02   -0.96767E-02  1200   0.789E-02 0.916E-05
CGA:   6    -0.592751018838E+03   -0.25960E-02   -0.25960E-02  1200   0.244E-02-0.352E-06
CGA:   7    -0.592751911743E+03   -0.89290E-03   -0.89301E-03  1200   0.782E-03-0.295E-05
CGA:   8    -0.592752195891E+03   -0.28415E-03   -0.28410E-03  1200   0.198E-03 0.158E-05
CGA:   9    -0.592752265213E+03   -0.69322E-04   -0.69300E-04  1200   0.428E-04 0.149E-05
CGA:  10    -0.592752280990E+03   -0.15778E-04   -0.15785E-04  1200   0.104E-04-0.262E-06
CGA:  11    -0.592752284997E+03   -0.40066E-05   -0.40138E-05  1200   0.275E-05-0.129E-06
  62 F= -.59275228E+03 E0= -.59275228E+03  d E =-.332222E-01
       N       E                     dE             d eps       ncg     rms          ort
SDA:   1    -0.591830321288E+03    0.92196E+00    0.00000E+00  1200   0.228E+01 0.000E+00
CGA:   2    -0.592562194872E+03   -0.73187E+00   -0.73187E+00  1200   0.651E+00 0.274E-04
CGA:   3    -0.592736652147E+03   -0.17446E+00   -0.17449E+00  1200   0.114E+00 0.113E-03
CGA:   4    -0.592764900789E+03   -0.28249E-01   -0.28249E-01  1200   0.225E-01 0.390E-05
CGA:   5    -0.592771100160E+03   -0.61994E-02   -0.61997E-02  1200   0.505E-02 0.586E-05
CGA:   6    -0.592772756917E+03   -0.16568E-02   -0.16568E-02  1200   0.156E-02 0.676E-06
CGA:   7    -0.592773326758E+03   -0.56984E-03   -0.56990E-03  1200   0.499E-03-0.174E-05
CGA:   8    -0.592773507347E+03   -0.18059E-03   -0.18056E-03  1200   0.129E-03 0.805E-06
CGA:   9    -0.592773552143E+03   -0.44796E-04   -0.44782E-04  1200   0.282E-04 0.106E-05
CGA:  10    -0.592773562618E+03   -0.10475E-04   -0.10480E-04  1200   0.692E-05-0.146E-06
CGA:  11    -0.592773565365E+03   -0.27466E-05   -0.27550E-05  1200   0.191E-05-0.130E-06
  63 F= -.59277357E+03 E0= -.59277357E+03  d E =-.212804E-01
       N       E                     dE             d eps       ncg     rms          ort
SDA:   1    -0.591991275939E+03    0.78229E+00    0.00000E+00  1200   0.191E+01 0.000E+00
CGA:   2    -0.592603310978E+03   -0.61204E+00   -0.61203E+00  1200   0.544E+00 0.138E-04
CGA:   3    -0.592749121100E+03   -0.14581E+00   -0.14583E+00  1200   0.951E-01 0.765E-04
CGA:   4    -0.592772691346E+03   -0.23570E-01   -0.23570E-01  1200   0.187E-01 0.291E-05
CGA:   5    -0.592777860379E+03   -0.51690E-02   -0.51693E-02  1200   0.421E-02 0.472E-05
CGA:   6    -0.592779239879E+03   -0.13795E-02   -0.13795E-02  1200   0.130E-02 0.442E-06
CGA:   7    -0.592779713826E+03   -0.47395E-03   -0.47400E-03  1200   0.415E-03-0.156E-05
CGA:   8    -0.592779864068E+03   -0.15024E-03   -0.15022E-03  1200   0.107E-03 0.629E-06
CGA:   9    -0.592779901373E+03   -0.37305E-04   -0.37292E-04  1200   0.235E-04 0.926E-06
CGA:  10    -0.592779910112E+03   -0.87393E-05   -0.87437E-05  1200   0.578E-05-0.120E-06
CGA:  11    -0.592779912411E+03   -0.22983E-05   -0.23059E-05  1200   0.160E-05-0.114E-06
  64 F= -.59277991E+03 E0= -.59277991E+03  d E =-.276274E-01
       N       E                     dE             d eps       ncg     rms          ort
SDA:   1    -0.591905616508E+03    0.87429E+00    0.00000E+00  1200   0.213E+01 0.000E+00
CGA:   2    -0.592607222100E+03   -0.70161E+00   -0.70161E+00  1200   0.605E+00 0.300E-03
CGA:   3    -0.592768268574E+03   -0.16105E+00   -0.16106E+00  1200   0.106E+00 0.601E-04
CGA:   4    -0.592794349649E+03   -0.26081E-01   -0.26082E-01  1200   0.211E-01 0.583E-05
CGA:   5    -0.592800206600E+03   -0.58570E-02   -0.58574E-02  1200   0.479E-02 0.765E-05
CGA:   6    -0.592801801188E+03   -0.15946E-02   -0.15946E-02  1200   0.151E-02-0.624E-06
CGA:   7    -0.592802350901E+03   -0.54971E-03   -0.54981E-03  1200   0.482E-03-0.278E-05
CGA:   8    -0.592802523655E+03   -0.17275E-03   -0.17273E-03  1200   0.123E-03 0.885E-06
CGA:   9    -0.592802566342E+03   -0.42687E-04   -0.42673E-04  1200   0.265E-04 0.113E-05
CGA:  10    -0.592802576224E+03   -0.98816E-05   -0.98871E-05  1200   0.652E-05-0.156E-06
CGA:  11    -0.592802578784E+03   -0.25601E-05   -0.25655E-05  1200   0.176E-05-0.911E-07
  65 F= -.59280258E+03 E0= -.59280258E+03  d E =-.226664E-01
       N       E                     dE             d eps       ncg     rms          ort
SDA:   1    -0.590299524469E+03    0.25031E+01    0.00000E+00  1200   0.598E+01 0.000E+00
CGA:   2    -0.592267593567E+03   -0.19681E+01   -0.19681E+01  1200   0.170E+01 0.120E-02
CGA:   3    -0.592720099162E+03   -0.45251E+00   -0.45265E+00  1200   0.299E+00 0.673E-03
CGA:   4    -0.592793881399E+03   -0.73782E-01   -0.73783E-01  1200   0.595E-01 0.290E-04
CGA:   5    -0.592810482697E+03   -0.16601E-01   -0.16602E-01  1200   0.136E-01 0.150E-04
CGA:   6    -0.592815036747E+03   -0.45540E-02   -0.45540E-02  1200   0.432E-02 0.184E-05
CGA:   7    -0.592816613660E+03   -0.15769E-02   -0.15770E-02  1200   0.138E-02-0.317E-05
CGA:   8    -0.592817108454E+03   -0.49479E-03   -0.49475E-03  1200   0.351E-03 0.158E-05
CGA:   9    -0.592817230595E+03   -0.12214E-03   -0.12211E-03  1200   0.756E-04 0.194E-05
CGA:  10    -0.592817258516E+03   -0.27922E-04   -0.27930E-04  1200   0.183E-04-0.224E-06
CGA:  11    -0.592817265676E+03   -0.71600E-05   -0.71692E-05  1200   0.491E-05-0.151E-06
CGA:  12    -0.592817267622E+03   -0.19452E-05   -0.19347E-05  1200   0.131E-05 0.179E-06
  66 F= -.59281727E+03 E0= -.59281727E+03  d E =-.373552E-01
       N       E                     dE             d eps       ncg     rms          ort
SDA:   1    -0.591256193071E+03    0.15611E+01    0.00000E+00  1200   0.379E+01 0.000E+00
CGA:   2    -0.592500086823E+03   -0.12439E+01   -0.12439E+01  1200   0.106E+01 0.390E-03
CGA:   3    -0.592784159254E+03   -0.28407E+00   -0.28413E+00  1200   0.183E+00 0.298E-03
CGA:   4    -0.592829081372E+03   -0.44922E-01   -0.44924E-01  1200   0.366E-01 0.230E-04
CGA:   5    -0.592839115224E+03   -0.10034E-01   -0.10035E-01  1200   0.806E-02 0.116E-04
CGA:   6    -0.592841795710E+03   -0.26805E-02   -0.26805E-02  1200   0.247E-02 0.138E-05
CGA:   7    -0.592842704606E+03   -0.90890E-03   -0.90897E-03  1200   0.789E-03-0.204E-05
CGA:   8    -0.592842990813E+03   -0.28621E-03   -0.28617E-03  1200   0.201E-03 0.131E-05
CGA:   9    -0.592843061047E+03   -0.70234E-04   -0.70218E-04  1200   0.431E-04 0.131E-05
CGA:  10    -0.592843076864E+03   -0.15817E-04   -0.15822E-04  1200   0.102E-04-0.172E-06
CGA:  11    -0.592843080834E+03   -0.39700E-05   -0.39748E-05  1200   0.264E-05-0.970E-07
  67 F= -.59284308E+03 E0= -.59284308E+03  d E =-.258132E-01
       N       E                     dE             d eps       ncg     rms          ort
SDA:   1    -0.591414818623E+03    0.14283E+01    0.00000E+00  1200   0.343E+01 0.000E+00
CGA:   2    -0.592540720781E+03   -0.11259E+01   -0.11259E+01  1200   0.960E+00 0.302E-03
CGA:   3    -0.592798006320E+03   -0.25729E+00   -0.25733E+00  1200   0.165E+00 0.251E-03
CGA:   4    -0.592838625806E+03   -0.40619E-01   -0.40621E-01  1200   0.331E-01 0.201E-04
CGA:   5    -0.592847693598E+03   -0.90678E-02   -0.90686E-02  1200   0.728E-02 0.115E-04
CGA:   6    -0.592850112985E+03   -0.24194E-02   -0.24194E-02  1200   0.223E-02 0.243E-05
CGA:   7    -0.592850933557E+03   -0.82057E-03   -0.82061E-03  1200   0.712E-03-0.945E-06
CGA:   8    -0.592851192025E+03   -0.25847E-03   -0.25842E-03  1200   0.182E-03 0.154E-05
CGA:   9    -0.592851255494E+03   -0.63468E-04   -0.63452E-04  1200   0.389E-04 0.124E-05
CGA:  10    -0.592851269794E+03   -0.14300E-04   -0.14306E-04  1200   0.927E-05-0.199E-06
CGA:  11    -0.592851273399E+03   -0.36052E-05   -0.36131E-05  1200   0.241E-05-0.144E-06
  68 F= -.59285127E+03 E0= -.59285127E+03  d E =-.340058E-01
       N       E                     dE             d eps       ncg     rms          ort
SDA:   1    -0.592036074231E+03    0.81520E+00    0.00000E+00  1200   0.201E+01 0.000E+00
CGA:   2    -0.592691114859E+03   -0.65504E+00   -0.65504E+00  1200   0.565E+00 0.109E-03
CGA:   3    -0.592842742068E+03   -0.15163E+00   -0.15165E+00  1200   0.984E-01 0.835E-04
CGA:   4    -0.592866896541E+03   -0.24154E-01   -0.24155E-01  1200   0.198E-01 0.720E-05
CGA:   5    -0.592872316694E+03   -0.54202E-02   -0.54206E-02  1200   0.434E-02 0.708E-05
CGA:   6    -0.592873754780E+03   -0.14381E-02   -0.14381E-02  1200   0.133E-02 0.172E-05
CGA:   7    -0.592874240473E+03   -0.48569E-03   -0.48572E-03  1200   0.424E-03-0.776E-06
CGA:   8    -0.592874393089E+03   -0.15262E-03   -0.15259E-03  1200   0.109E-03 0.804E-06
CGA:   9    -0.592874430927E+03   -0.37838E-04   -0.37827E-04  1200   0.233E-04 0.857E-06
CGA:  10    -0.592874439519E+03   -0.85915E-05   -0.85942E-05  1200   0.555E-05-0.787E-07
CGA:  11    -0.592874441711E+03   -0.21919E-05   -0.21984E-05  1200   0.148E-05-0.106E-06
  69 F= -.59287444E+03 E0= -.59287444E+03  d E =-.231683E-01
       N       E                     dE             d eps       ncg     rms          ort
SDA:   1    -0.585382501216E+03    0.74919E+01    0.00000E+00  1200   0.181E+02 0.000E+00
CGA:   2    -0.591244895785E+03   -0.58624E+01   -0.58624E+01  1200   0.513E+01 0.826E-03
CGA:   3    -0.592610118517E+03   -0.13652E+01   -0.13669E+01  1200   0.904E+00 0.741E-02
CGA:   4    -0.592833669345E+03   -0.22355E+00   -0.22353E+00  1200   0.182E+00 0.201E-03
CGA:   5    -0.592884408908E+03   -0.50740E-01   -0.50746E-01  1200   0.413E-01 0.630E-04
[...]
CGA:  10    -0.593644516405E+03   -0.33783E-05   -0.33834E-05  1200   0.219E-05-0.101E-06
 600 F= -.59364452E+03 E0= -.59364452E+03  d E =-.166055E-02
       N       E                     dE             d eps       ncg     rms          ort
SDA:   1    -0.593201242520E+03    0.44327E+00    0.00000E+00  1200   0.102E+01 0.000E+00
CGA:   2    -0.593556081791E+03   -0.35484E+00   -0.35485E+00  1200   0.311E+00-0.266E-03
CGA:   3    -0.593630602522E+03   -0.74521E-01   -0.74534E-01  1200   0.467E-01 0.464E-04
CGA:   4    -0.593642517847E+03   -0.11915E-01   -0.11915E-01  1200   0.899E-02-0.920E-06
CGA:   5    -0.593645013946E+03   -0.24961E-02   -0.24962E-02  1200   0.191E-02 0.129E-05
CGA:   6    -0.593645637402E+03   -0.62346E-03   -0.62345E-03  1200   0.548E-03 0.171E-05
CGA:   7    -0.593645831017E+03   -0.19362E-03   -0.19362E-03  1200   0.171E-03-0.274E-06
CGA:   8    -0.593645893011E+03   -0.61994E-04   -0.61984E-04  1200   0.446E-04 0.275E-06
CGA:   9    -0.593645909215E+03   -0.16204E-04   -0.16196E-04  1200   0.102E-04 0.207E-06
CGA:  10    -0.593645913138E+03   -0.39235E-05   -0.39300E-05  1200   0.254E-05-0.114E-06
 601 F= -.59364591E+03 E0= -.59364591E+03  d E =-.139673E-02
       N       E                     dE             d eps       ncg     rms          ort
SDA:   1    -0.593641554032E+03    0.43552E-02    0.00000E+00  1200   0.100E-01 0.000E+00
CGA:   2    -0.593645044604E+03   -0.34906E-02   -0.34906E-02  1200   0.303E-02 0.151E-05
CGA:   3    -0.593645773178E+03   -0.72857E-03   -0.72850E-03  1200   0.459E-03-0.717E-06
CGA:   4    -0.593645890545E+03   -0.11737E-03   -0.11733E-03  1200   0.888E-04-0.455E-06
CGA:   5    -0.593645915320E+03   -0.24775E-04   -0.24779E-04  1200   0.189E-04 0.739E-07
CGA:   6    -0.593645921554E+03   -0.62335E-05   -0.62333E-05  1200   0.556E-05 0.939E-07
CGA:   7    -0.593645923571E+03   -0.20168E-05   -0.20192E-05  1200   0.181E-05-0.716E-07
CGA:   8    -0.593645924205E+03   -0.63382E-06   -0.63335E-06  1200   0.456E-06 0.203E-07
 602 F= -.59364592E+03 E0= -.59364592E+03  d E =-.140780E-02
       N       E                     dE             d eps       ncg     rms          ort
SDA:   1    -0.593573317552E+03    0.72606E-01    0.00000E+00  1200   0.171E+00 0.000E+00
CGA:   2    -0.593632247580E+03   -0.58930E-01   -0.58930E-01  1200   0.513E-01 0.420E-05
CGA:   3    -0.593644667599E+03   -0.12420E-01   -0.12420E-01  1200   0.777E-02 0.205E-05
CGA:   4    -0.593646651798E+03   -0.19842E-02   -0.19841E-02  1200   0.150E-02-0.149E-05
CGA:   5    -0.593647065808E+03   -0.41401E-03   -0.41407E-03  1200   0.321E-03 0.119E-05
CGA:   6    -0.593647170043E+03   -0.10424E-03   -0.10423E-03  1200   0.925E-04 0.627E-06
CGA:   7    -0.593647202907E+03   -0.32864E-04   -0.32871E-04  1200   0.293E-04-0.216E-06
CGA:   8    -0.593647213431E+03   -0.10524E-04   -0.10516E-04  1200   0.753E-05 0.211E-06
CGA:   9    -0.593647216157E+03   -0.27265E-05   -0.27234E-05  1200   0.171E-05 0.893E-07
 603 F= -.59364722E+03 E0= -.59364722E+03  d E =-.129195E-02
       N       E                     dE             d eps       ncg     rms          ort
SDA:   1    -0.593530404163E+03    0.11681E+00    0.00000E+00  1200   0.272E+00 0.000E+00
CGA:   2    -0.593624044189E+03   -0.93640E-01   -0.93640E-01  1200   0.815E-01 0.339E-05
CGA:   3    -0.593643758918E+03   -0.19715E-01   -0.19714E-01  1200   0.123E-01 0.392E-05
CGA:   4    -0.593646907915E+03   -0.31490E-02   -0.31489E-02  1200   0.238E-02-0.163E-05
CGA:   5    -0.593647566351E+03   -0.65844E-03   -0.65850E-03  1200   0.510E-03 0.148E-05
CGA:   6    -0.593647732190E+03   -0.16584E-03   -0.16583E-03  1200   0.147E-03 0.866E-06
CGA:   7    -0.593647784470E+03   -0.52280E-04   -0.52288E-04  1200   0.466E-04-0.231E-06
CGA:   8    -0.593647801256E+03   -0.16786E-04   -0.16776E-04  1200   0.120E-04 0.262E-06
CGA:   9    -0.593647805611E+03   -0.43554E-05   -0.43511E-05  1200   0.274E-05 0.115E-06
 604 F= -.59364781E+03 E0= -.59364781E+03  d E =-.188141E-02
       N       E                     dE             d eps       ncg     rms          ort
SDA:   1    -0.593625250197E+03    0.22551E-01    0.00000E+00  1200   0.544E-01 0.000E+00
CGA:   2    -0.593643941682E+03   -0.18691E-01   -0.18692E-01  1200   0.164E-01-0.255E-05
CGA:   3    -0.593647893563E+03   -0.39519E-02   -0.39518E-02  1200   0.248E-02 0.887E-06
CGA:   4    -0.593648523688E+03   -0.63013E-03   -0.63006E-03  1200   0.479E-03-0.936E-06
CGA:   5    -0.593648655327E+03   -0.13164E-03   -0.13166E-03  1200   0.102E-03 0.513E-06
CGA:   6    -0.593648688400E+03   -0.33072E-04   -0.33071E-04  1200   0.293E-04 0.172E-06
CGA:   7    -0.593648698827E+03   -0.10428E-04   -0.10435E-04  1200   0.923E-05-0.211E-06
CGA:   8    -0.593648702106E+03   -0.32785E-05   -0.32742E-05  1200   0.235E-05 0.104E-06
 605 F= -.59364870E+03 E0= -.59364870E+03  d E =-.896494E-03
       N       E                     dE             d eps       ncg     rms          ort
SDA:   1    -0.593439561422E+03    0.20914E+00    0.00000E+00  1200   0.490E+00 0.000E+00
CGA:   2    -0.593607905823E+03   -0.16834E+00   -0.16834E+00  1200   0.148E+00 0.116E-04
CGA:   3    -0.593643479831E+03   -0.35574E-01   -0.35572E-01  1200   0.222E-01 0.801E-05
CGA:   4    -0.593649146025E+03   -0.56662E-02   -0.56662E-02  1200   0.427E-02-0.142E-05
CGA:   5    -0.593650324820E+03   -0.11788E-02   -0.11789E-02  1200   0.908E-03 0.163E-05
CGA:   6    -0.593650618765E+03   -0.29395E-03   -0.29394E-03  1200   0.259E-03 0.767E-06
CGA:   7    -0.593650710264E+03   -0.91498E-04   -0.91515E-04  1200   0.805E-04-0.446E-06
CGA:   8    -0.593650739287E+03   -0.29023E-04   -0.29009E-04  1200   0.209E-04 0.328E-06
CGA:   9    -0.593650746852E+03   -0.75656E-05   -0.75599E-05  1200   0.476E-05 0.146E-06
CGA:  10    -0.593650748688E+03   -0.18361E-05   -0.18402E-05  1200   0.118E-05-0.648E-07
 606 F= -.59365075E+03 E0= -.59365075E+03  d E =-.294308E-02
       N       E                     dE             d eps       ncg     rms          ort
SDA:   1    -0.592807619543E+03    0.84313E+00    0.00000E+00  1200   0.196E+01 0.000E+00
CGA:   2    -0.593481140848E+03   -0.67352E+00   -0.67353E+00  1200   0.591E+00-0.779E-04
CGA:   3    -0.593623255206E+03   -0.14211E+00   -0.14212E+00  1200   0.889E-01 0.106E-03
CGA:   4    -0.593645898169E+03   -0.22643E-01   -0.22644E-01  1200   0.171E-01 0.538E-05
CGA:   5    -0.593650611817E+03   -0.47136E-02   -0.47138E-02  1200   0.362E-02 0.404E-05
CGA:   6    -0.593651781365E+03   -0.11695E-02   -0.11695E-02  1200   0.103E-02 0.245E-05
CGA:   7    -0.593652144303E+03   -0.36294E-03   -0.36295E-03  1200   0.319E-03-0.355E-06
CGA:   8    -0.593652259844E+03   -0.11554E-03   -0.11551E-03  1200   0.834E-04 0.692E-06
CGA:   9    -0.593652290103E+03   -0.30259E-04   -0.30246E-04  1200   0.191E-04 0.325E-06
CGA:  10    -0.593652297364E+03   -0.72608E-05   -0.72675E-05  1200   0.463E-05-0.116E-06
CGA:  11    -0.593652299162E+03   -0.17987E-05   -0.17962E-05  1200   0.112E-05 0.405E-07
 607 F= -.59365230E+03 E0= -.59365230E+03  d E =-.449355E-02
       N       E                     dE             d eps       ncg     rms          ort
SDA:   1    -0.593474652182E+03    0.17765E+00    0.00000E+00  1200   0.416E+00 0.000E+00
CGA:   2    -0.593617116066E+03   -0.14246E+00   -0.14247E+00  1200   0.125E+00-0.867E-04
CGA:   3    -0.593647388018E+03   -0.30272E-01   -0.30275E-01  1200   0.190E-01 0.626E-05
CGA:   4    -0.593652225107E+03   -0.48371E-02   -0.48368E-02  1200   0.365E-02-0.275E-05
CGA:   5    -0.593653233100E+03   -0.10080E-02   -0.10080E-02  1200   0.779E-03 0.293E-07
CGA:   6    -0.593653485296E+03   -0.25220E-03   -0.25220E-03  1200   0.224E-03 0.816E-06
CGA:   7    -0.593653564906E+03   -0.79610E-04   -0.79617E-04  1200   0.705E-04-0.225E-06
CGA:   8    -0.593653590453E+03   -0.25547E-04   -0.25539E-04  1200   0.182E-04 0.202E-06
CGA:   9    -0.593653597049E+03   -0.65961E-05   -0.65917E-05  1200   0.412E-05 0.132E-06
CGA:  10    -0.593653598627E+03   -0.15777E-05   -0.15815E-05  1200   0.102E-05-0.716E-07
 608 F= -.59365360E+03 E0= -.59365360E+03  d E =-.129946E-02
       N       E                     dE             d eps       ncg     rms          ort
SDA:   1    -0.593535522215E+03    0.11807E+00    0.00000E+00  1200   0.275E+00 0.000E+00
CGA:   2    -0.593629783751E+03   -0.94262E-01   -0.94262E-01  1200   0.826E-01-0.491E-04
CGA:   3    -0.593649804852E+03   -0.20021E-01   -0.20023E-01  1200   0.125E-01 0.117E-05
CGA:   4    -0.593653005661E+03   -0.32008E-02   -0.32006E-02  1200   0.241E-02-0.246E-05
CGA:   5    -0.593653673586E+03   -0.66793E-03   -0.66792E-03  1200   0.515E-03-0.922E-07
CGA:   6    -0.593653840780E+03   -0.16719E-03   -0.16719E-03  1200   0.149E-03 0.617E-06
CGA:   7    -0.593653893685E+03   -0.52906E-04   -0.52912E-04  1200   0.469E-04-0.206E-06
CGA:   8    -0.593653910640E+03   -0.16955E-04   -0.16950E-04  1200   0.121E-04 0.149E-06
CGA:   9    -0.593653915015E+03   -0.43742E-05   -0.43707E-05  1200   0.273E-05 0.104E-06
 609 F= -.59365392E+03 E0= -.59365392E+03  d E =-.161585E-02
       N       E                     dE             d eps       ncg     rms          ort
SDA:   1    -0.593515170365E+03    0.13874E+00    0.00000E+00  1200   0.325E+00 0.000E+00
CGA:   2    -0.593626269071E+03   -0.11110E+00   -0.11110E+00  1200   0.982E-01-0.806E-04
CGA:   3    -0.593650032120E+03   -0.23763E-01   -0.23766E-01  1200   0.149E-01 0.147E-06
CGA:   4    -0.593653823508E+03   -0.37914E-02   -0.37911E-02  1200   0.288E-02-0.295E-05
CGA:   5    -0.593654617299E+03   -0.79379E-03   -0.79377E-03  1200   0.611E-03-0.333E-06
CGA:   6    -0.593654815217E+03   -0.19792E-03   -0.19792E-03  1200   0.175E-03 0.619E-06
CGA:   7    -0.593654877236E+03   -0.62019E-04   -0.62025E-04  1200   0.548E-04-0.176E-06
CGA:   8    -0.593654897136E+03   -0.19900E-04   -0.19895E-04  1200   0.142E-04 0.120E-06
CGA:   9    -0.593654902289E+03   -0.51530E-05   -0.51483E-05  1200   0.322E-05 0.123E-06
CGA:  10    -0.593654903531E+03   -0.12417E-05   -0.12449E-05  1200   0.800E-06-0.479E-07
 610 F= -.59365490E+03 E0= -.59365490E+03  d E =-.988516E-03
       N       E                     dE             d eps       ncg     rms          ort
SDA:   1    -0.593543102499E+03    0.11180E+00    0.00000E+00  1200   0.261E+00 0.000E+00
CGA:   2    -0.593632194242E+03   -0.89092E-01   -0.89093E-01  1200   0.788E-01-0.585E-04
CGA:   3    -0.593651254897E+03   -0.19061E-01   -0.19063E-01  1200   0.120E-01-0.231E-05
CGA:   4    -0.593654297149E+03   -0.30423E-02   -0.30420E-02  1200   0.231E-02-0.276E-05
CGA:   5    -0.593654933876E+03   -0.63673E-03   -0.63671E-03  1200   0.489E-03-0.399E-06
CGA:   6    -0.593655092205E+03   -0.15833E-03   -0.15833E-03  1200   0.140E-03 0.524E-06
CGA:   7    -0.593655141897E+03   -0.49692E-04   -0.49697E-04  1200   0.439E-04-0.162E-06
CGA:   8    -0.593655157831E+03   -0.15933E-04   -0.15930E-04  1200   0.114E-04 0.963E-07
CGA:   9    -0.593655161954E+03   -0.41232E-05   -0.41196E-05  1200   0.257E-05 0.105E-06
 611 F= -.59365516E+03 E0= -.59365516E+03  d E =-.124694E-02
       N       E                     dE             d eps       ncg     rms          ort
SDA:   1    -0.593529108554E+03    0.12605E+00    0.00000E+00  1200   0.295E+00 0.000E+00
CGA:   2    -0.593630202420E+03   -0.10109E+00   -0.10110E+00  1200   0.892E-01-0.760E-04
CGA:   3    -0.593651726144E+03   -0.21524E-01   -0.21526E-01  1200   0.135E-01-0.974E-06
CGA:   4    -0.593655152203E+03   -0.34261E-02   -0.34258E-02  1200   0.262E-02-0.272E-05
CGA:   5    -0.593655874934E+03   -0.72273E-03   -0.72272E-03  1200   0.557E-03-0.191E-06
CGA:   6    -0.593656055548E+03   -0.18061E-03   -0.18061E-03  1200   0.161E-03 0.482E-06
CGA:   7    -0.593656112507E+03   -0.56959E-04   -0.56969E-04  1200   0.505E-04-0.314E-06
CGA:   8    -0.593656130816E+03   -0.18309E-04   -0.18306E-04  1200   0.131E-04 0.603E-07
CGA:   9    -0.593656135569E+03   -0.47534E-05   -0.47488E-05  1200   0.298E-05 0.118E-06
 612 F= -.59365614E+03 E0= -.59365614E+03  d E =-.973615E-03
       N       E                     dE             d eps       ncg     rms          ort
SDA:   1    -0.593608791863E+03    0.47339E-01    0.00000E+00  1200   0.110E+00 0.000E+00
CGA:   2    -0.593646596736E+03   -0.37805E-01   -0.37805E-01  1200   0.333E-01-0.169E-04
CGA:   3    -0.593654640023E+03   -0.80433E-02   -0.80434E-02  1200   0.504E-02-0.473E-05
CGA:   4    -0.593655921380E+03   -0.12814E-02   -0.12812E-02  1200   0.985E-03-0.181E-05
CGA:   5    -0.593656192648E+03   -0.27127E-03   -0.27126E-03  1200   0.210E-03-0.178E-06
CGA:   6    -0.593656260879E+03   -0.68231E-04   -0.68230E-04  1200   0.610E-04 0.245E-06
CGA:   7    -0.593656282566E+03   -0.21687E-04   -0.21694E-04  1200   0.193E-04-0.216E-06
CGA:   8    -0.593656289536E+03   -0.69704E-05   -0.69693E-05  1200   0.499E-05 0.285E-07
CGA:   9    -0.593656291336E+03   -0.18000E-05   -0.17976E-05  1200   0.113E-05 0.695E-07
 613 F= -.59365629E+03 E0= -.59365629E+03  d E =-.112938E-02
       N       E                     dE             d eps       ncg     rms          ort
SDA:   1    -0.593527703233E+03    0.12859E+00    0.00000E+00  1200   0.303E+00 0.000E+00
CGA:   2    -0.593630915291E+03   -0.10321E+00   -0.10321E+00  1200   0.905E-01-0.359E-04
CGA:   3    -0.593653001063E+03   -0.22086E-01   -0.22087E-01  1200   0.138E-01 0.137E-05
CGA:   4    -0.593656512411E+03   -0.35113E-02   -0.35112E-02  1200   0.265E-02-0.198E-05
CGA:   5    -0.593657242252E+03   -0.72984E-03   -0.72987E-03  1200   0.560E-03 0.528E-06
CGA:   6    -0.593657423244E+03   -0.18099E-03   -0.18099E-03  1200   0.161E-03 0.538E-06
CGA:   7    -0.593657480169E+03   -0.56925E-04   -0.56935E-04  1200   0.509E-04-0.271E-06
CGA:   8    -0.593657498601E+03   -0.18432E-04   -0.18423E-04  1200   0.132E-04 0.209E-06
CGA:   9    -0.593657503406E+03   -0.48043E-05   -0.47994E-05  1200   0.301E-05 0.127E-06
 614 F= -.59365750E+03 E0= -.59365750E+03  d E =-.121207E-02
       N       E                     dE             d eps       ncg     rms          ort
SDA:   1    -0.593520387378E+03    0.13711E+00    0.00000E+00  1200   0.321E+00 0.000E+00
CGA:   2    -0.593629746848E+03   -0.10936E+00   -0.10936E+00  1200   0.959E-01-0.426E-04
CGA:   3    -0.593653147769E+03   -0.23401E-01   -0.23402E-01  1200   0.146E-01 0.203E-05
CGA:   4    -0.593656868814E+03   -0.37210E-02   -0.37209E-02  1200   0.282E-02-0.205E-05
CGA:   5    -0.593657642866E+03   -0.77405E-03   -0.77407E-03  1200   0.595E-03 0.479E-06
CGA:   6    -0.593657835091E+03   -0.19223E-03   -0.19222E-03  1200   0.171E-03 0.588E-06
CGA:   7    -0.593657895658E+03   -0.60567E-04   -0.60576E-04  1200   0.542E-04-0.252E-06
CGA:   8    -0.593657915297E+03   -0.19639E-04   -0.19631E-04  1200   0.141E-04 0.209E-06
CGA:   9    -0.593657920418E+03   -0.51207E-05   -0.51153E-05  1200   0.321E-05 0.134E-06
CGA:  10    -0.593657921657E+03   -0.12389E-05   -0.12426E-05  1200   0.798E-06-0.698E-07
 615 F= -.59365792E+03 E0= -.59365792E+03  d E =-.163032E-02
       N       E                     dE             d eps       ncg     rms          ort
SDA:   1    -0.593593499162E+03    0.64421E-01    0.00000E+00  1200   0.153E+00 0.000E+00
CGA:   2    -0.593645458403E+03   -0.51959E-01   -0.51959E-01  1200   0.462E-01-0.671E-05
CGA:   3    -0.593656718256E+03   -0.11260E-01   -0.11260E-01  1200   0.703E-02-0.420E-06
CGA:   4    -0.593658507447E+03   -0.17892E-02   -0.17891E-02  1200   0.136E-02-0.148E-05
CGA:   5    -0.593658882069E+03   -0.37462E-03   -0.37465E-03  1200   0.287E-03 0.587E-06
CGA:   6    -0.593658975122E+03   -0.93053E-04   -0.93053E-04  1200   0.829E-04 0.162E-06
CGA:   7    -0.593659004433E+03   -0.29311E-04   -0.29319E-04  1200   0.261E-04-0.249E-06
CGA:   8    -0.593659013793E+03   -0.93598E-05   -0.93517E-05  1200   0.665E-05 0.215E-06
CGA:   9    -0.593659016219E+03   -0.24257E-05   -0.24224E-05  1200   0.151E-05 0.902E-07
 616 F= -.59365902E+03 E0= -.59365902E+03  d E =-.109456E-02
       N       E                     dE             d eps       ncg     rms          ort
SDA:   1    -0.593071219374E+03    0.58779E+00    0.00000E+00  1200   0.138E+01 0.000E+00
CGA:   2    -0.593538861039E+03   -0.46764E+00   -0.46765E+00  1200   0.416E+00-0.158E-03
CGA:   3    -0.593640209828E+03   -0.10135E+00   -0.10136E+00  1200   0.632E-01 0.695E-04
CGA:   4    -0.593656288215E+03   -0.16078E-01   -0.16079E-01  1200   0.122E-01 0.178E-05
CGA:   5    -0.593659644591E+03   -0.33564E-02   -0.33565E-02  1200   0.257E-02 0.250E-05
CGA:   6    -0.593660474406E+03   -0.82981E-03   -0.82981E-03  1200   0.737E-03 0.135E-05
CGA:   7    -0.593660733947E+03   -0.25954E-03   -0.25955E-03  1200   0.231E-03-0.229E-06
CGA:   8    -0.593660817636E+03   -0.83688E-04   -0.83659E-04  1200   0.598E-04 0.710E-06
CGA:   9    -0.593660839450E+03   -0.21814E-04   -0.21802E-04  1200   0.136E-04 0.309E-06
CGA:  10    -0.593660844620E+03   -0.51695E-05   -0.51746E-05  1200   0.326E-05-0.899E-07
CGA:  11    -0.593660845889E+03   -0.12699E-05   -0.12693E-05  1200   0.793E-06 0.144E-07
 617 F= -.59366085E+03 E0= -.59366085E+03  d E =-.292423E-02
       N       E                     dE             d eps       ncg     rms          ort
SDA:   1    -0.593588015675E+03    0.72829E-01    0.00000E+00  1200   0.170E+00 0.000E+00
CGA:   2    -0.593645902305E+03   -0.57887E-01   -0.57887E-01  1200   0.514E-01-0.964E-05
CGA:   3    -0.593658426114E+03   -0.12524E-01   -0.12524E-01  1200   0.782E-02-0.392E-06
CGA:   4    -0.593660416730E+03   -0.19906E-02   -0.19905E-02  1200   0.151E-02-0.153E-05
CGA:   5    -0.593660834072E+03   -0.41734E-03   -0.41737E-03  1200   0.321E-03 0.459E-06
CGA:   6    -0.593660937963E+03   -0.10389E-03   -0.10389E-03  1200   0.928E-04 0.195E-06
CGA:   7    -0.593660970773E+03   -0.32810E-04   -0.32816E-04  1200   0.292E-04-0.221E-06
CGA:   8    -0.593660981288E+03   -0.10515E-04   -0.10507E-04  1200   0.747E-05 0.206E-06
CGA:   9    -0.593660984010E+03   -0.27220E-05   -0.27193E-05  1200   0.169E-05 0.898E-07
 618 F= -.59366098E+03 E0= -.59366098E+03  d E =-.306235E-02
       N       E                     dE             d eps       ncg     rms          ort
SDA:   1    -0.593495071310E+03    0.16591E+00    0.00000E+00  1200   0.391E+00 0.000E+00
CGA:   2    -0.593627725886E+03   -0.13265E+00   -0.13266E+00  1200   0.117E+00-0.473E-04
CGA:   3    -0.593656384983E+03   -0.28659E-01   -0.28661E-01  1200   0.178E-01 0.724E-05
CGA:   4    -0.593660917647E+03   -0.45327E-02   -0.45325E-02  1200   0.348E-02-0.190E-05
CGA:   5    -0.593661874616E+03   -0.95697E-03   -0.95701E-03  1200   0.739E-03 0.812E-06
CGA:   6    -0.593662114313E+03   -0.23970E-03   -0.23970E-03  1200   0.215E-03 0.619E-06
CGA:   7    -0.593662190390E+03   -0.76076E-04   -0.76085E-04  1200   0.681E-04-0.286E-06
CGA:   8    -0.593662214983E+03   -0.24593E-04   -0.24582E-04  1200   0.175E-04 0.310E-06
CGA:   9    -0.593662221344E+03   -0.63610E-05   -0.63552E-05  1200   0.396E-05 0.152E-06
CGA:  10    -0.593662222859E+03   -0.15153E-05   -0.15189E-05  1200   0.970E-06-0.681E-07
 619 F= -.59366222E+03 E0= -.59366222E+03  d E =-.123885E-02
       N       E                     dE             d eps       ncg     rms          ort
SDA:   1    -0.593630430167E+03    0.31791E-01    0.00000E+00  1200   0.746E-01 0.000E+00
CGA:   2    -0.593655762423E+03   -0.25332E-01   -0.25332E-01  1200   0.224E-01-0.532E-05
CGA:   3    -0.593661231908E+03   -0.54695E-02   -0.54694E-02  1200   0.340E-02-0.936E-06
CGA:   4    -0.593662098668E+03   -0.86676E-03   -0.86668E-03  1200   0.666E-03-0.107E-05
CGA:   5    -0.593662281990E+03   -0.18332E-03   -0.18334E-03  1200   0.141E-03 0.319E-06
CGA:   6    -0.593662327933E+03   -0.45943E-04   -0.45943E-04  1200   0.413E-04 0.200E-06
CGA:   7    -0.593662342632E+03   -0.14698E-04   -0.14703E-04  1200   0.132E-04-0.162E-06
CGA:   8    -0.593662347348E+03   -0.47163E-05   -0.47121E-05  1200   0.335E-05 0.123E-06
 620 F= -.59366235E+03 E0= -.59366235E+03  d E =-.136334E-02
