
Lmod is automatically replacing "cce/11.0.4" with "gcc/10.2.0".


Lmod is automatically replacing "PrgEnv-cray/8.0.0" with "PrgEnv-gnu/8.0.0".


Lmod is automatically replacing "craype-network-ofi" with "craype-network-ucx".


Inactive Modules:
  1) cray-mpich


Lmod is automatically replacing "craype-network-ucx" with "craype-network-ofi".


Inactive Modules:
  1) cray-mpich-ucx/8.1.9

Activating Modules:
  1) cray-mpich/8.1.4

 ----------------------------------------------------
    OOO  PPPP  EEEEE N   N M   M PPPP
   O   O P   P E     NN  N MM MM P   P
   O   O PPPP  EEEEE N N N M M M PPPP   -- VERSION
   O   O P     E     N  NN M   M P
    OOO  P     EEEEE N   N M   M P
 ----------------------------------------------------
 running   64 mpi-ranks, with    1 threads/rank
 distrk:  each k-point on   32 cores,    2 groups
 distr:  one band on    4 cores,    8 groups
 vasp.6.3.1 04May22 (build May 25 2022 13:42:54) complex                         
 POSCAR found type information on POSCAR C H I N Sn
 POSCAR found :  5 types and      48 ions
 scaLAPACK will be used
 -----------------------------------------------------------------------------
|                                                                             |
|               ----> ADVICE to this user running VASP <----                  |
|                                                                             |
|     You have a (more or less) 'large supercell' and for larger cells it     |
|     might be more efficient to use real-space projection operators.         |
|     Therefore, try LREAL= Auto in the INCAR file.                           |
|     Mind: For very accurate calculation, you might also keep the            |
|     reciprocal projection scheme (i.e. LREAL=.FALSE.).                      |
|                                                                             |
 -----------------------------------------------------------------------------

 WARNING: PSMAXN for non-local potential too small
 LDA part: xc-table for Pade appr. of Perdew
 POSCAR, INCAR and KPOINTS ok, starting setup
 FFT: planning ... GRIDC
 FFT: planning ... GRID_SOFT
 FFT: planning ... GRID
 WAVECAR not read
 entering main loop
       N       E                     dE             d eps       ncg     rms          ort
DAV:   1     0.839857782173E+03    0.83986E+03   -0.89064E+04  1200   0.160E+03
DAV:   2    -0.457849871278E+03   -0.12977E+04   -0.12387E+04  1200   0.252E+02
DAV:   3    -0.635765712566E+03   -0.17792E+03   -0.17636E+03  1200   0.104E+02
DAV:   4    -0.641313146832E+03   -0.55474E+01   -0.55140E+01  1200   0.210E+01
DAV:   5    -0.641486908165E+03   -0.17376E+00   -0.17367E+00  1200   0.342E+00
 gam= 0.000 g(H,U,f)=  0.636E+02 0.871E+01 0.138E-13 ort(H,U,f) = 0.000E+00 0.000E+00 0.000E+00
SDA:   6    -0.575339354002E+03    0.66148E+02   -0.17367E+00  1200   0.723E+02 0.000E+00
 gam= 0.000 trial= 0.400  step= 0.333 mean= 0.400
 gam= 0.072 g(H,U,f)=  0.424E+01 0.942E+00 0.710E-14 ort(H,U,f) =-0.279E+01 0.280E+01 0.287E-14
CGA:   7    -0.587400756873E+03   -0.12061E+02   -0.12030E+02  1200   0.518E+01 0.127E-01
 gam= 0.072 trial= 0.397  step= 0.590 mean= 0.397
 gam= 0.328 g(H,U,f)=  0.141E+01 0.290E+00 0.416E-12 ort(H,U,f) =-0.554E+00 0.578E+00 0.566E-12
CGA:   8    -0.588933097918E+03   -0.15323E+01   -0.15286E+01  1200   0.170E+01 0.237E-01
 gam= 0.328 trial= 0.406  step= 0.590 mean= 0.406
 gam= 0.293 g(H,U,f)=  0.415E+00 0.822E-01 0.763E-13 ort(H,U,f) =-0.246E+00 0.248E+00 0.166E-12
CGA:   9    -0.589436604163E+03   -0.50351E+00   -0.50338E+00  1200   0.497E+00 0.202E-02
 gam= 0.293 trial= 0.415  step= 0.612 mean= 0.415
 gam= 0.282 g(H,U,f)=  0.123E+00 0.175E-01 0.420E-18 ort(H,U,f) =-0.691E-01 0.691E-01 0.944E-18
CGA:  10    -0.589588940493E+03   -0.15234E+00   -0.15232E+00  1200   0.140E+00-0.228E-04
 gam= 0.282 trial= 0.425  step= 0.684 mean= 0.425
 gam= 0.287 g(H,U,f)=  0.367E-01 0.353E-02 0.887E-17 ort(H,U,f) =-0.146E-01 0.144E-01 0.246E-16
CGA:  11    -0.589636851630E+03   -0.47911E-01   -0.47934E-01  1200   0.403E-01-0.213E-03
 gam= 0.287 trial= 0.438  step= 0.639 mean= 0.438
 gam= 0.224 g(H,U,f)=  0.842E-02 0.593E-03 0.441E-20 ort(H,U,f) =-0.277E-02 0.278E-02 0.427E-19
CGA:  12    -0.589649695999E+03   -0.12844E-01   -0.12844E-01  1200   0.902E-02 0.152E-04
 gam= 0.224 trial= 0.448  step= 0.711 mean= 0.448
 gam= 0.247 g(H,U,f)=  0.211E-02 0.114E-03 0.273E-16 ort(H,U,f) =-0.446E-03 0.396E-03 0.943E-16
CGA:  13    -0.589652897273E+03   -0.32013E-02   -0.32080E-02  1200   0.223E-02-0.494E-04
 gam= 0.247 trial= 0.461  step= 0.728 mean= 0.461
 gam= 0.226 g(H,U,f)=  0.466E-03 0.358E-04 0.151E-20 ort(H,U,f) =-0.796E-04 0.842E-04 0.584E-20
CGA:  14    -0.589653703670E+03   -0.80640E-03   -0.80580E-03  1200   0.502E-03 0.465E-05
 gam= 0.226 trial= 0.475  step= 0.736 mean= 0.475
 gam= 0.224 g(H,U,f)=  0.107E-03 0.601E-05 0.478E-22 ort(H,U,f) = 0.616E-05 0.152E-04 0.294E-21
CGA:  15    -0.589653891590E+03   -0.18792E-03   -0.18514E-03  1200   0.113E-03 0.213E-04
 gam= 0.224 trial= 0.488  step= 0.836 mean= 0.488
 gam= 0.276 g(H,U,f)=  0.293E-04 0.175E-05 0.786E-18 ort(H,U,f) =-0.101E-05 0.356E-05 0.662E-17
CGA:  16    -0.589653941103E+03   -0.49513E-04   -0.49067E-04  1200   0.310E-04 0.255E-05
 gam= 0.276 trial= 0.505  step= 0.887 mean= 0.505
 gam= 0.286 g(H,U,f)=  0.843E-05 0.447E-06 0.114E-19 ort(H,U,f) =-0.206E-05 0.277E-06-0.119E-18
CGA:  17    -0.589653954848E+03   -0.13746E-04   -0.14084E-04  1200   0.887E-05-0.178E-05
 gam= 0.286 trial= 0.524  step= 0.754 mean= 0.524
 gam= 0.267 g(H,U,f)=  0.218E-05 0.190E-06 0.480E-20 ort(H,U,f) = 0.764E-06 0.459E-07-0.606E-20
CGA:  18    -0.589653958093E+03   -0.32448E-05   -0.31521E-05  1200   0.237E-05 0.810E-06
 gam= 0.267 trial= 0.536  step= 0.699 mean= 0.536
 final diagonalization
   1 F= -.58965396E+03 E0= -.58965396E+03  d E =-.589654E+03
 curvature:   0.00 expect dE= 0.000E+00 dE for cont linesearch  0.000E+00
 trial: gam= 0.00000 g(F)=  0.138E+01 g(S)=  0.000E+00 ort = 0.000E+00 (trialstep = 0.100E+01)
 search vector abs. value=  0.138E+01
 bond charge predicted
 wavefunctions rotated
       N       E                     dE             d eps       ncg     rms          ort
 gam= 0.000 g(H,U,f)=  0.459E+02 0.462E+00 0.506E-14 ort(H,U,f) = 0.000E+00 0.000E+00 0.000E+00
SDA:   1    -0.567733871446E+03    0.21920E+02    0.00000E+00  1200   0.464E+02 0.000E+00
 gam= 0.000 trial= 0.544  step= 0.709 mean= 0.544
 gam= 0.322 g(H,U,f)=  0.146E+02 0.318E+00 0.196E-18 ort(H,U,f) = 0.368E+00-0.202E+00-0.195E-18
CGA:   2    -0.584196918697E+03   -0.16463E+02   -0.16447E+02  1200   0.149E+02 0.166E+00
 gam= 0.322 trial= 0.552  step= 0.515 mean= 0.552
 gam= 0.175 g(H,U,f)=  0.243E+01 0.173E+00 0.181E-15 ort(H,U,f) =-0.171E+00 0.156E+00 0.342E-15
CGA:   3    -0.588058283880E+03   -0.38614E+01   -0.38608E+01  1200   0.261E+01-0.148E-01
 gam= 0.175 trial= 0.550  step= 0.497 mean= 0.550
 gam= 0.216 g(H,U,f)=  0.522E+00 0.396E-01 0.520E-16 ort(H,U,f) =-0.841E-01 0.881E-01 0.769E-16
CGA:   4    -0.588705692767E+03   -0.64741E+00   -0.64769E+00  1200   0.562E+00 0.401E-02
 gam= 0.216 trial= 0.548  step= 0.577 mean= 0.548
 gam= 0.277 g(H,U,f)=  0.138E+00 0.174E-01 0.217E-17 ort(H,U,f) =-0.364E-01 0.369E-01 0.300E-17
CGA:   5    -0.588867937090E+03   -0.16224E+00   -0.16223E+00  1200   0.156E+00 0.497E-03
 gam= 0.277 trial= 0.549  step= 0.676 mean= 0.549
 gam= 0.335 g(H,U,f)=  0.463E-01 0.591E-02 0.326E-20 ort(H,U,f) =-0.154E-01 0.156E-01 0.121E-19
CGA:   6    -0.588920554041E+03   -0.52617E-01   -0.52607E-01  1200   0.522E-01 0.122E-03
 gam= 0.335 trial= 0.555  step= 0.712 mean= 0.555
 gam= 0.309 g(H,U,f)=  0.154E-01 0.722E-03 0.113E-21 ort(H,U,f) =-0.275E-02 0.280E-02 0.592E-21
CGA:   7    -0.588939146336E+03   -0.18592E-01   -0.18587E-01  1200   0.161E-01 0.512E-04
 gam= 0.309 trial= 0.563  step= 0.704 mean= 0.563
 gam= 0.243 g(H,U,f)=  0.380E-02 0.105E-03 0.413E-18 ort(H,U,f) =-0.562E-03 0.577E-03 0.113E-17
CGA:   8    -0.588944823907E+03   -0.56776E-02   -0.56766E-02  1200   0.391E-02 0.150E-04
 gam= 0.243 trial= 0.570  step= 0.703 mean= 0.570
 gam= 0.221 g(H,U,f)=  0.844E-03 0.216E-04 0.555E-16 ort(H,U,f) =-0.395E-04 0.453E-04-0.121E-16
CGA:   9    -0.588946199860E+03   -0.13760E-02   -0.13756E-02  1200   0.866E-03 0.582E-05
 gam= 0.221 trial= 0.577  step= 0.739 mean= 0.577
 gam= 0.248 g(H,U,f)=  0.209E-03 0.626E-05 0.112E-17 ort(H,U,f) =-0.853E-05 0.453E-05-0.821E-17
CGA:  10    -0.588946519857E+03   -0.32000E-03   -0.32033E-03  1200   0.215E-03-0.400E-05
 gam= 0.248 trial= 0.585  step= 0.785 mean= 0.585
 gam= 0.270 g(H,U,f)=  0.565E-04 0.161E-05 0.930E-24 ort(H,U,f) =-0.312E-05 0.113E-05 0.454E-24
CGA:  11    -0.588946603643E+03   -0.83786E-04   -0.83985E-04  1200   0.581E-04-0.198E-05
 gam= 0.270 trial= 0.595  step= 0.803 mean= 0.595
 gam= 0.284 g(H,U,f)=  0.158E-04 0.665E-06 0.400E-24 ort(H,U,f) =-0.191E-06 0.790E-06 0.104E-23
CGA:  12    -0.588946626798E+03   -0.23155E-04   -0.23093E-04  1200   0.165E-04 0.600E-06
 gam= 0.284 trial= 0.605  step= 0.840 mean= 0.605
 gam= 0.304 g(H,U,f)=  0.476E-05 0.256E-06 0.426E-24 ort(H,U,f) =-0.742E-06 0.671E-07 0.109E-23
CGA:  13    -0.588946633717E+03   -0.69189E-05   -0.69975E-05  1200   0.502E-05-0.675E-06
 gam= 0.304 trial= 0.617  step= 0.834 mean= 0.617
 gam= 0.297 g(H,U,f)=  0.144E-05 0.526E-07 0.735E-26 ort(H,U,f) =-0.288E-06 0.298E-07 0.148E-24
CGA:  14    -0.588946635696E+03   -0.19790E-05   -0.20067E-05  1200   0.149E-05-0.258E-06
 gam= 0.297 trial= 0.628  step= 0.761 mean= 0.628
 final diagonalization
   2 F= -.58894664E+03 E0= -.58894664E+03  d E =0.707322E+00
 trial-energy change:    0.707322  1 .order    0.788818   -1.377849    2.955485
 step:   0.3434(harm=  0.3180)  dis= 0.03392  next Energy=  -589.893841 (dE=-0.240E+00)
 bond charge predicted
 wavefunctions rotated
       N       E                     dE             d eps       ncg     rms          ort
 gam= 0.000 g(H,U,f)=  0.204E+02 0.162E+00 0.251E-17 ort(H,U,f) = 0.000E+00 0.000E+00 0.000E+00
SDA:   1    -0.580691699750E+03    0.82549E+01    0.00000E+00  1200   0.205E+02 0.000E+00
 gam= 0.000 trial= 0.635  step= 0.697 mean= 0.635
 gam= 0.324 g(H,U,f)=  0.649E+01 0.178E+00 0.237E-15 ort(H,U,f) = 0.347E-01-0.113E+00-0.192E-15
CGA:   2    -0.587852135455E+03   -0.71604E+01   -0.71642E+01  1200   0.666E+01-0.788E-01
 gam= 0.324 trial= 0.638  step= 0.506 mean= 0.638
 gam= 0.160 g(H,U,f)=  0.102E+01 0.425E-01 0.611E-17 ort(H,U,f) =-0.217E-01 0.370E-01-0.402E-16
CGA:   3    -0.589527601178E+03   -0.16755E+01   -0.16792E+01  1200   0.107E+01 0.154E-01
 gam= 0.160 trial= 0.631  step= 0.513 mean= 0.631
 gam= 0.204 g(H,U,f)=  0.205E+00 0.121E-01 0.547E-18 ort(H,U,f) =-0.230E-01 0.226E-01 0.204E-18
CGA:   4    -0.589801535099E+03   -0.27393E+00   -0.27384E+00  1200   0.217E+00-0.431E-03
 gam= 0.204 trial= 0.625  step= 0.580 mean= 0.625
 gam= 0.259 g(H,U,f)=  0.502E-01 0.605E-02 0.619E-18 ort(H,U,f) =-0.115E-01 0.114E-01 0.497E-18
CGA:   5    -0.589864479336E+03   -0.62944E-01   -0.62942E-01  1200   0.562E-01-0.126E-03
 gam= 0.259 trial= 0.623  step= 0.674 mean= 0.623
 gam= 0.334 g(H,U,f)=  0.170E-01 0.182E-02 0.255E-21 ort(H,U,f) =-0.454E-02 0.458E-02-0.148E-19
CGA:   6    -0.589883412948E+03   -0.18934E-01   -0.18932E-01  1200   0.188E-01 0.423E-04
 gam= 0.334 trial= 0.626  step= 0.730 mean= 0.626
 gam= 0.314 g(H,U,f)=  0.560E-02 0.302E-03 0.159E-20 ort(H,U,f) =-0.114E-02 0.118E-02 0.930E-20
CGA:   7    -0.589890277146E+03   -0.68642E-02   -0.68624E-02  1200   0.590E-02 0.365E-04
 gam= 0.314 trial= 0.631  step= 0.719 mean= 0.631
 gam= 0.245 g(H,U,f)=  0.141E-02 0.375E-04 0.150E-21 ort(H,U,f) =-0.208E-03 0.205E-03-0.145E-20
CGA:   8    -0.589892400998E+03   -0.21239E-02   -0.21240E-02  1200   0.145E-02-0.361E-05
 gam= 0.245 trial= 0.635  step= 0.702 mean= 0.635
 gam= 0.221 g(H,U,f)=  0.312E-03 0.718E-05 0.995E-21 ort(H,U,f) =-0.177E-04 0.136E-04-0.632E-21
CGA:   9    -0.589892908560E+03   -0.50756E-03   -0.50770E-03  1200   0.319E-03-0.406E-05
 gam= 0.221 trial= 0.639  step= 0.714 mean= 0.639
 gam= 0.230 g(H,U,f)=  0.720E-04 0.130E-05 0.981E-22 ort(H,U,f) = 0.136E-05 0.353E-07 0.267E-21
CGA:  10    -0.589893022271E+03   -0.11371E-03   -0.11366E-03  1200   0.733E-04 0.139E-05
 gam= 0.230 trial= 0.642  step= 0.769 mean= 0.642
 gam= 0.275 g(H,U,f)=  0.194E-04 0.742E-06 0.225E-21 ort(H,U,f) = 0.783E-07 0.753E-07 0.234E-21
CGA:  11    -0.589893050619E+03   -0.28348E-04   -0.28338E-04  1200   0.202E-04 0.154E-06
 gam= 0.275 trial= 0.649  step= 0.806 mean= 0.649
 gam= 0.279 g(H,U,f)=  0.539E-05 0.255E-06 0.554E-23 ort(H,U,f) =-0.453E-06 0.166E-06 0.481E-22
CGA:  12    -0.589893058747E+03   -0.81281E-05   -0.81509E-05  1200   0.564E-05-0.287E-06
 gam= 0.279 trial= 0.657  step= 0.791 mean= 0.657
 gam= 0.283 g(H,U,f)=  0.148E-05 0.122E-06 0.451E-24 ort(H,U,f) = 0.830E-07 0.552E-07-0.571E-23
CGA:  13    -0.589893060957E+03   -0.22091E-05   -0.22001E-05  1200   0.160E-05 0.138E-06
 gam= 0.283 trial= 0.663  step= 0.791 mean= 0.663
 final diagonalization
   3 F= -.58989306E+03 E0= -.58989306E+03  d E =-.239103E+00
 curvature:  -0.16 expect dE=-0.165E+00 dE for cont linesearch -0.637E-06
 trial: gam= 0.75376 g(F)=  0.104E+01 g(S)=  0.000E+00 ort =-0.235E-02 (trialstep = 0.659E+00)
 search vector abs. value=  0.182E+01
 bond charge predicted
 wavefunctions rotated
       N       E                     dE             d eps       ncg     rms          ort
 gam= 0.000 g(H,U,f)=  0.171E+02 0.365E+00 0.410E-15 ort(H,U,f) = 0.000E+00 0.000E+00 0.000E+00
SDA:   1    -0.582605706718E+03    0.72874E+01    0.00000E+00  1200   0.174E+02 0.000E+00
 gam= 0.000 trial= 0.670  step= 0.632 mean= 0.670
 gam= 0.361 g(H,U,f)=  0.594E+01 0.340E+00 0.260E-14 ort(H,U,f) = 0.383E+00-0.333E+00-0.399E-14
CGA:   2    -0.588106876305E+03   -0.55012E+01   -0.55038E+01  1200   0.628E+01 0.499E-01
 gam= 0.361 trial= 0.668  step= 0.523 mean= 0.668
 gam= 0.167 g(H,U,f)=  0.102E+01 0.366E-01 0.823E-19 ort(H,U,f) =-0.194E-01 0.173E-01 0.552E-19
CGA:   3    -0.589756358058E+03   -0.16495E+01   -0.16483E+01  1200   0.105E+01-0.210E-02
 gam= 0.167 trial= 0.661  step= 0.512 mean= 0.661
 gam= 0.206 g(H,U,f)=  0.203E+00 0.134E-01 0.238E-20 ort(H,U,f) =-0.212E-01 0.217E-01 0.570E-20
CGA:   4    -0.590025605916E+03   -0.26925E+00   -0.26935E+00  1200   0.217E+00 0.513E-03
 gam= 0.206 trial= 0.653  step= 0.580 mean= 0.653
 gam= 0.267 g(H,U,f)=  0.513E-01 0.664E-02 0.177E-15 ort(H,U,f) =-0.117E-01 0.120E-01 0.273E-15
CGA:   5    -0.590088454298E+03   -0.62848E-01   -0.62860E-01  1200   0.579E-01 0.227E-03
 gam= 0.267 trial= 0.649  step= 0.681 mean= 0.649
 gam= 0.341 g(H,U,f)=  0.181E-01 0.159E-02 0.104E-16 ort(H,U,f) =-0.424E-02 0.429E-02 0.178E-16
CGA:   6    -0.590108211294E+03   -0.19757E-01   -0.19756E-01  1200   0.197E-01 0.513E-04
 gam= 0.341 trial= 0.651  step= 0.736 mean= 0.651
 gam= 0.308 g(H,U,f)=  0.573E-02 0.344E-03 0.764E-18 ort(H,U,f) =-0.134E-02 0.132E-02 0.240E-17
CGA:   7    -0.590115479465E+03   -0.72682E-02   -0.72691E-02  1200   0.608E-02-0.231E-04
 gam= 0.308 trial= 0.655  step= 0.703 mean= 0.655
 gam= 0.246 g(H,U,f)=  0.146E-02 0.343E-04 0.344E-19 ort(H,U,f) =-0.142E-03 0.147E-03 0.225E-18
CGA:   8    -0.590117612984E+03   -0.21335E-02   -0.21334E-02  1200   0.150E-02 0.538E-05
 gam= 0.246 trial= 0.658  step= 0.699 mean= 0.658
 gam= 0.222 g(H,U,f)=  0.324E-03 0.744E-05 0.919E-20 ort(H,U,f) =-0.112E-04 0.186E-04 0.403E-19
CGA:   9    -0.590118136474E+03   -0.52349E-03   -0.52334E-03  1200   0.331E-03 0.737E-05
 gam= 0.222 trial= 0.660  step= 0.759 mean= 0.660
 gam= 0.256 g(H,U,f)=  0.829E-04 0.175E-05 0.247E-21 ort(H,U,f) =-0.246E-05 0.624E-06 0.297E-20
CGA:  10    -0.590118262766E+03   -0.12629E-03   -0.12638E-03  1200   0.847E-04-0.183E-05
 gam= 0.256 trial= 0.665  step= 0.807 mean= 0.665
 gam= 0.277 g(H,U,f)=  0.226E-04 0.872E-06 0.681E-23 ort(H,U,f) =-0.190E-05 0.375E-06-0.168E-21
CGA:  11    -0.590118296630E+03   -0.33864E-04   -0.33972E-04  1200   0.235E-04-0.152E-05
 gam= 0.277 trial= 0.672  step= 0.796 mean= 0.672
 gam= 0.250 g(H,U,f)=  0.568E-05 0.189E-06 0.629E-22 ort(H,U,f) = 0.375E-06 0.221E-06-0.136E-21
CGA:  12    -0.590118305832E+03   -0.92019E-05   -0.91648E-05  1200   0.587E-05 0.597E-06
 gam= 0.250 trial= 0.678  step= 0.879 mean= 0.678
 gam= 0.296 g(H,U,f)=  0.167E-05 0.658E-07 0.102E-21 ort(H,U,f) =-0.173E-06 0.103E-06 0.402E-22
CGA:  13    -0.590118308469E+03   -0.26371E-05   -0.26443E-05  1200   0.174E-05-0.705E-07
 gam= 0.296 trial= 0.688  step= 0.968 mean= 0.688
 final diagonalization
   4 F= -.59011831E+03 E0= -.59011831E+03  d E =-.225248E+00
 trial-energy change:   -0.225248  1 .order   -0.215288   -0.681983    0.251406
 step:   0.4898(harm=  0.4817)  dis= 0.04853  next Energy=  -590.150460 (dE=-0.257E+00)
 bond charge predicted
 wavefunctions rotated
       N       E                     dE             d eps       ncg     rms          ort
 gam= 0.000 g(H,U,f)=  0.117E+01 0.341E-01 0.180E-14 ort(H,U,f) = 0.000E+00 0.000E+00 0.000E+00
SDA:   1    -0.589641430669E+03    0.47688E+00    0.00000E+00  1200   0.120E+01 0.000E+00
 gam= 0.000 trial= 0.702  step= 0.613 mean= 0.702
 gam= 0.364 g(H,U,f)=  0.422E+00 0.154E-01 0.284E-16 ort(H,U,f) = 0.205E-01-0.212E-01-0.449E-16
CGA:   2    -0.590010410247E+03   -0.36898E+00   -0.36888E+00  1200   0.438E+00-0.673E-03
 gam= 0.364 trial= 0.698  step= 0.533 mean= 0.698
 gam= 0.162 g(H,U,f)=  0.686E-01 0.239E-02 0.996E-17 ort(H,U,f) =-0.420E-03 0.566E-03 0.319E-16
CGA:   3    -0.590126915381E+03   -0.11651E+00   -0.11656E+00  1200   0.710E-01 0.146E-03
 gam= 0.162 trial= 0.689  step= 0.505 mean= 0.689
 gam= 0.193 g(H,U,f)=  0.132E-01 0.554E-03 0.151E-17 ort(H,U,f) =-0.997E-03 0.101E-02 0.724E-17
CGA:   4    -0.590144856692E+03   -0.17941E-01   -0.17941E-01  1200   0.137E-01 0.102E-04
 gam= 0.193 trial= 0.680  step= 0.570 mean= 0.680
 gam= 0.245 g(H,U,f)=  0.308E-02 0.280E-03 0.158E-16 ort(H,U,f) =-0.509E-03 0.478E-03 0.130E-16
CGA:   5    -0.590148773205E+03   -0.39165E-02   -0.39148E-02  1200   0.336E-02-0.312E-04
 gam= 0.245 trial= 0.675  step= 0.661 mean= 0.675
 gam= 0.319 g(H,U,f)=  0.985E-03 0.864E-04 0.315E-17 ort(H,U,f) =-0.211E-03 0.206E-03 0.117E-16
CGA:   6    -0.590149880893E+03   -0.11077E-02   -0.11077E-02  1200   0.107E-02-0.502E-05
 gam= 0.319 trial= 0.674  step= 0.735 mean= 0.674
 gam= 0.312 g(H,U,f)=  0.315E-03 0.187E-04 0.232E-19 ort(H,U,f) =-0.543E-04 0.636E-04 0.728E-18
CGA:   7    -0.590150273985E+03   -0.39309E-03   -0.39281E-03  1200   0.334E-03 0.932E-05
 gam= 0.312 trial= 0.677  step= 0.727 mean= 0.677
 gam= 0.260 g(H,U,f)=  0.849E-04 0.201E-05 0.314E-19 ort(H,U,f) =-0.101E-04 0.103E-04 0.348E-18
CGA:   8    -0.590150396432E+03   -0.12245E-03   -0.12244E-03  1200   0.869E-04 0.134E-06
 gam= 0.260 trial= 0.680  step= 0.721 mean= 0.680
 gam= 0.232 g(H,U,f)=  0.198E-04 0.372E-06 0.250E-18 ort(H,U,f) =-0.274E-05 0.100E-05-0.393E-18
CGA:   9    -0.590150427746E+03   -0.31315E-04   -0.31351E-04  1200   0.201E-04-0.174E-05
 gam= 0.232 trial= 0.682  step= 0.730 mean= 0.682
 gam= 0.231 g(H,U,f)=  0.458E-05 0.717E-07 0.460E-19 ort(H,U,f) = 0.286E-06-0.234E-07 0.751E-19
CGA:  10    -0.590150434956E+03   -0.72095E-05   -0.72029E-05  1200   0.466E-05 0.263E-06
 gam= 0.231 trial= 0.684  step= 0.759 mean= 0.684
 gam= 0.263 g(H,U,f)=  0.118E-05 0.424E-07 0.102E-18 ort(H,U,f) = 0.240E-06-0.393E-08 0.103E-18
CGA:  11    -0.590150436754E+03   -0.17979E-05   -0.17887E-05  1200   0.123E-05 0.236E-06
 gam= 0.263 trial= 0.688  step= 0.987 mean= 0.688
 final diagonalization
   5 F= -.59015044E+03 E0= -.59015044E+03  d E =-.257376E+00
 curvature:  -0.42 expect dE=-0.326E+00 dE for cont linesearch -0.376E-08
 trial: gam= 0.74298 g(F)=  0.772E+00 g(S)=  0.000E+00 ort =-0.127E-03 (trialstep = 0.625E+00)
 search vector abs. value=  0.177E+01
 bond charge predicted
 wavefunctions rotated
       N       E                     dE             d eps       ncg     rms          ort
 gam= 0.000 g(H,U,f)=  0.144E+02 0.964E-01 0.101E-16 ort(H,U,f) = 0.000E+00 0.000E+00 0.000E+00
SDA:   1    -0.583787344954E+03    0.63631E+01    0.00000E+00  1200   0.145E+02 0.000E+00
 gam= 0.000 trial= 0.703  step= 0.697 mean= 0.703
 gam= 0.308 g(H,U,f)=  0.437E+01 0.987E-01 0.944E-13 ort(H,U,f) = 0.114E+00-0.717E-01-0.920E-13
CGA:   2    -0.588844406671E+03   -0.50571E+01   -0.50573E+01  1200   0.447E+01 0.419E-01
 gam= 0.308 trial= 0.702  step= 0.514 mean= 0.702
 gam= 0.174 g(H,U,f)=  0.735E+00 0.427E-01 0.696E-17 ort(H,U,f) =-0.346E-01 0.327E-01 0.239E-16
CGA:   3    -0.589997128903E+03   -0.11527E+01   -0.11514E+01  1200   0.778E+00-0.185E-02
 gam= 0.174 trial= 0.693  step= 0.502 mean= 0.693
 gam= 0.217 g(H,U,f)=  0.157E+00 0.115E-01 0.754E-17 ort(H,U,f) =-0.228E-01 0.228E-01 0.124E-16
CGA:   4    -0.590192295919E+03   -0.19517E+00   -0.19527E+00  1200   0.169E+00 0.444E-04
 gam= 0.217 trial= 0.683  step= 0.571 mean= 0.683
 gam= 0.270 g(H,U,f)=  0.403E-01 0.531E-02 0.251E-17 ort(H,U,f) =-0.106E-01 0.107E-01 0.283E-17
CGA:   5    -0.590240398688E+03   -0.48103E-01   -0.48108E-01  1200   0.456E-01 0.790E-04
 gam= 0.270 trial= 0.678  step= 0.683 mean= 0.678
 gam= 0.326 g(H,U,f)=  0.133E-01 0.155E-02 0.206E-18 ort(H,U,f) =-0.418E-02 0.419E-02 0.100E-17
CGA:   6    -0.590255983104E+03   -0.15584E-01   -0.15584E-01  1200   0.149E-01 0.139E-04
 gam= 0.326 trial= 0.678  step= 0.724 mean= 0.678
 gam= 0.304 g(H,U,f)=  0.434E-02 0.176E-03 0.166E-19 ort(H,U,f) =-0.764E-03 0.748E-03 0.126E-18
CGA:   7    -0.590261364233E+03   -0.53811E-02   -0.53814E-02  1200   0.452E-02-0.155E-04
 gam= 0.304 trial= 0.680  step= 0.694 mean= 0.680
 gam= 0.241 g(H,U,f)=  0.106E-02 0.297E-04 0.155E-22 ort(H,U,f) =-0.137E-03 0.141E-03-0.133E-20
CGA:   8    -0.590262931681E+03   -0.15674E-02   -0.15674E-02  1200   0.109E-02 0.444E-05
 gam= 0.241 trial= 0.681  step= 0.695 mean= 0.681
 gam= 0.224 g(H,U,f)=  0.237E-03 0.640E-05 0.219E-20 ort(H,U,f) = 0.272E-06 0.395E-05-0.362E-20
CGA:   9    -0.590263310681E+03   -0.37900E-03   -0.37897E-03  1200   0.244E-03 0.423E-05
 gam= 0.224 trial= 0.682  step= 0.744 mean= 0.682
 gam= 0.250 g(H,U,f)=  0.597E-04 0.121E-05 0.890E-21 ort(H,U,f) =-0.179E-05 0.583E-06 0.928E-21
CGA:  10    -0.590263401726E+03   -0.91045E-04   -0.91082E-04  1200   0.609E-04-0.121E-05
 gam= 0.250 trial= 0.685  step= 0.773 mean= 0.685
 gam= 0.257 g(H,U,f)=  0.152E-04 0.408E-06 0.991E-21 ort(H,U,f) =-0.788E-06 0.431E-06 0.129E-20
CGA:  11    -0.590263425137E+03   -0.23411E-04   -0.23427E-04  1200   0.156E-04-0.357E-06
 gam= 0.257 trial= 0.689  step= 0.760 mean= 0.689
 gam= 0.241 g(H,U,f)=  0.362E-05 0.141E-06 0.198E-21 ort(H,U,f) = 0.401E-06 0.231E-06 0.633E-21
CGA:  12    -0.590263431063E+03   -0.59256E-05   -0.59032E-05  1200   0.376E-05 0.632E-06
 gam= 0.241 trial= 0.693  step= 0.822 mean= 0.693
 gam= 0.284 g(H,U,f)=  0.103E-05 0.398E-07 0.599E-22 ort(H,U,f) =-0.566E-07 0.468E-07 0.206E-21
CGA:  13    -0.590263432669E+03   -0.16066E-05   -0.16074E-05  1200   0.107E-05-0.979E-08
 gam= 0.284 trial= 0.699  step= 0.874 mean= 0.699
 final diagonalization
   6 F= -.59026343E+03 E0= -.59026343E+03  d E =-.112996E+00
 trial-energy change:   -0.112996  1 .order   -0.107214   -0.482867    0.268440
 step:   0.4085(harm=  0.4019)  dis= 0.04545  next Energy=  -590.309744 (dE=-0.159E+00)
 bond charge predicted
 wavefunctions rotated
       N       E                     dE             d eps       ncg     rms          ort
 gam= 0.000 g(H,U,f)=  0.178E+01 0.166E-01 0.547E-19 ort(H,U,f) = 0.000E+00 0.000E+00 0.000E+00
SDA:   1    -0.589520044727E+03    0.74339E+00    0.00000E+00  1200   0.180E+01 0.000E+00
 gam= 0.000 trial= 0.708  step= 0.687 mean= 0.708
 gam= 0.313 g(H,U,f)=  0.550E+00 0.119E-01 0.232E-20 ort(H,U,f) = 0.877E-02-0.109E-01-0.314E-20
CGA:   2    -0.590136993822E+03   -0.61695E+00   -0.61690E+00  1200   0.562E+00-0.212E-02
 gam= 0.313 trial= 0.707  step= 0.507 mean= 0.707
 gam= 0.164 g(H,U,f)=  0.890E-01 0.301E-02 0.198E-21 ort(H,U,f) =-0.109E-02 0.135E-02-0.188E-20
CGA:   3    -0.590279273301E+03   -0.14228E+00   -0.14241E+00  1200   0.920E-01 0.262E-03
 gam= 0.164 trial= 0.697  step= 0.500 mean= 0.697
 gam= 0.202 g(H,U,f)=  0.178E-01 0.760E-03 0.144E-21 ort(H,U,f) =-0.137E-02 0.138E-02 0.981E-22
CGA:   4    -0.590302288357E+03   -0.23015E-01   -0.23012E-01  1200   0.185E-01 0.136E-04
 gam= 0.202 trial= 0.687  step= 0.559 mean= 0.687
 gam= 0.245 g(H,U,f)=  0.413E-02 0.419E-03 0.493E-21 ort(H,U,f) =-0.755E-03 0.723E-03 0.377E-21
CGA:   5    -0.590307469907E+03   -0.51816E-02   -0.51795E-02  1200   0.455E-02-0.324E-04
 gam= 0.245 trial= 0.681  step= 0.664 mean= 0.681
 gam= 0.315 g(H,U,f)=  0.130E-02 0.131E-03 0.227E-22 ort(H,U,f) =-0.309E-03 0.309E-03 0.162E-21
CGA:   6    -0.590308978259E+03   -0.15084E-02   -0.15084E-02  1200   0.143E-02-0.549E-06
 gam= 0.315 trial= 0.680  step= 0.728 mean= 0.680
 gam= 0.313 g(H,U,f)=  0.429E-03 0.192E-04 0.156E-22 ort(H,U,f) =-0.630E-04 0.744E-04 0.670E-22
CGA:   7    -0.590309500095E+03   -0.52184E-03   -0.52156E-03  1200   0.448E-03 0.114E-04
 gam= 0.313 trial= 0.682  step= 0.718 mean= 0.682
 gam= 0.259 g(H,U,f)=  0.112E-03 0.357E-05 0.134E-24 ort(H,U,f) =-0.151E-04 0.148E-04-0.372E-23
CGA:   8    -0.590309662124E+03   -0.16203E-03   -0.16203E-03  1200   0.116E-03-0.281E-06
 gam= 0.259 trial= 0.684  step= 0.710 mean= 0.684
 gam= 0.229 g(H,U,f)=  0.260E-04 0.545E-06 0.244E-23 ort(H,U,f) =-0.195E-05 0.409E-06-0.432E-23
CGA:   9    -0.590309703226E+03   -0.41102E-04   -0.41123E-04  1200   0.265E-04-0.155E-05
 gam= 0.229 trial= 0.685  step= 0.721 mean= 0.685
 gam= 0.231 g(H,U,f)=  0.605E-05 0.865E-07 0.711E-24 ort(H,U,f) = 0.303E-06-0.166E-07 0.803E-24
CGA:  10    -0.590309712675E+03   -0.94492E-05   -0.94439E-05  1200   0.614E-05 0.287E-06
 gam= 0.231 trial= 0.687  step= 0.762 mean= 0.687
 gam= 0.267 g(H,U,f)=  0.159E-05 0.457E-07 0.152E-23 ort(H,U,f) = 0.106E-06 0.173E-07 0.133E-23
CGA:  11    -0.590309715042E+03   -0.23669E-05   -0.23622E-05  1200   0.164E-05 0.123E-06
 gam= 0.267 trial= 0.691  step= 0.892 mean= 0.691
 final diagonalization
   7 F= -.59030972E+03 E0= -.59030972E+03  d E =-.159278E+00
 curvature:  -0.46 expect dE=-0.354E+00 dE for cont linesearch -0.157E-08
 trial: gam= 0.99338 g(F)=  0.766E+00 g(S)=  0.000E+00 ort =-0.778E-04 (trialstep = 0.410E+00)
 search vector abs. value=  0.252E+01
 bond charge predicted
 wavefunctions rotated
       N       E                     dE             d eps       ncg     rms          ort
 gam= 0.000 g(H,U,f)=  0.888E+01 0.121E+00 0.896E-15 ort(H,U,f) = 0.000E+00 0.000E+00 0.000E+00
SDA:   1    -0.586619311098E+03    0.36904E+01    0.00000E+00  1200   0.900E+01 0.000E+00
 gam= 0.000 trial= 0.701  step= 0.684 mean= 0.701
 gam= 0.308 g(H,U,f)=  0.268E+01 0.891E-01 0.210E-15 ort(H,U,f) = 0.770E-01-0.876E-01-0.207E-15
CGA:   2    -0.589694652533E+03   -0.30753E+01   -0.30752E+01  1200   0.277E+01-0.106E-01
 gam= 0.308 trial= 0.700  step= 0.505 mean= 0.700
 gam= 0.159 g(H,U,f)=  0.429E+00 0.114E-01 0.185E-20 ort(H,U,f) =-0.738E-02 0.874E-02-0.568E-21
CGA:   3    -0.590392036235E+03   -0.69738E+00   -0.69865E+00  1200   0.441E+00 0.136E-02
 gam= 0.159 trial= 0.690  step= 0.506 mean= 0.690
 gam= 0.205 g(H,U,f)=  0.856E-01 0.472E-02 0.153E-21 ort(H,U,f) =-0.754E-02 0.741E-02 0.453E-21
CGA:   4    -0.590503641689E+03   -0.11161E+00   -0.11156E+00  1200   0.904E-01-0.130E-03
 gam= 0.205 trial= 0.681  step= 0.559 mean= 0.681
 gam= 0.238 g(H,U,f)=  0.191E-01 0.245E-02 0.736E-21 ort(H,U,f) =-0.417E-02 0.420E-02 0.721E-21
CGA:   5    -0.590528906233E+03   -0.25265E-01   -0.25267E-01  1200   0.215E-01 0.268E-04
 gam= 0.238 trial= 0.675  step= 0.677 mean= 0.675
 gam= 0.316 g(H,U,f)=  0.618E-02 0.624E-03 0.413E-21 ort(H,U,f) =-0.158E-02 0.159E-02 0.865E-21
CGA:   6    -0.590536195133E+03   -0.72889E-02   -0.72889E-02  1200   0.681E-02 0.139E-04
 gam= 0.316 trial= 0.675  step= 0.727 mean= 0.675
 gam= 0.313 g(H,U,f)=  0.200E-02 0.138E-03 0.210E-22 ort(H,U,f) =-0.491E-03 0.481E-03 0.154E-21
CGA:   7    -0.590538672847E+03   -0.24777E-02   -0.24780E-02  1200   0.213E-02-0.991E-05
 gam= 0.313 trial= 0.678  step= 0.705 mean= 0.678
 gam= 0.245 g(H,U,f)=  0.505E-03 0.178E-04 0.179E-22 ort(H,U,f) =-0.777E-04 0.787E-04 0.731E-22
CGA:   8    -0.590539424219E+03   -0.75137E-03   -0.75136E-03  1200   0.523E-03 0.985E-06
 gam= 0.245 trial= 0.679  step= 0.691 mean= 0.679
 gam= 0.217 g(H,U,f)=  0.110E-03 0.333E-05 0.112E-24 ort(H,U,f) =-0.409E-05 0.761E-05 0.309E-23
CGA:   9    -0.590539605184E+03   -0.18096E-03   -0.18094E-03  1200   0.113E-03 0.352E-05
 gam= 0.217 trial= 0.680  step= 0.744 mean= 0.680
 gam= 0.251 g(H,U,f)=  0.278E-04 0.638E-06 0.298E-24 ort(H,U,f) =-0.163E-05 0.427E-06-0.142E-23
CGA:  10    -0.590539647570E+03   -0.42386E-04   -0.42425E-04  1200   0.285E-04-0.120E-05
 gam= 0.251 trial= 0.683  step= 0.786 mean= 0.683
 gam= 0.272 g(H,U,f)=  0.751E-05 0.244E-06 0.150E-24 ort(H,U,f) =-0.781E-06 0.863E-07-0.435E-25
CGA:  11    -0.590539658608E+03   -0.11038E-04   -0.11073E-04  1200   0.776E-05-0.694E-06
 gam= 0.272 trial= 0.688  step= 0.755 mean= 0.688
 gam= 0.238 g(H,U,f)=  0.177E-05 0.827E-07 0.684E-24 ort(H,U,f) = 0.185E-06 0.678E-07 0.322E-24
CGA:  12    -0.590539661474E+03   -0.28662E-05   -0.28576E-05  1200   0.185E-05 0.253E-06
 gam= 0.238 trial= 0.691  step= 0.791 mean= 0.691
 final diagonalization
   8 F= -.59053966E+03 E0= -.59053966E+03  d E =-.229946E+00
 trial-energy change:   -0.229946  1 .order   -0.230162   -0.314329   -0.145995
 step:   0.7661(harm=  0.7661)  dis= 0.08205  next Energy=  -590.603187 (dE=-0.293E+00)
 bond charge predicted
 wavefunctions rotated
       N       E                     dE             d eps       ncg     rms          ort
 gam= 0.000 g(H,U,f)=  0.672E+01 0.934E-01 0.199E-15 ort(H,U,f) = 0.000E+00 0.000E+00 0.000E+00
SDA:   1    -0.587640926808E+03    0.28987E+01    0.00000E+00  1200   0.681E+01 0.000E+00
 gam= 0.000 trial= 0.696  step= 0.683 mean= 0.696
 gam= 0.307 g(H,U,f)=  0.202E+01 0.649E-01 0.403E-13 ort(H,U,f) = 0.594E-01-0.666E-01-0.583E-13
CGA:   2    -0.589966269799E+03   -0.23253E+01   -0.23253E+01  1200   0.209E+01-0.726E-02
 gam= 0.307 trial= 0.696  step= 0.506 mean= 0.696
 gam= 0.158 g(H,U,f)=  0.321E+00 0.839E-02 0.878E-16 ort(H,U,f) =-0.499E-02 0.588E-02-0.525E-15
CGA:   3    -0.590493449226E+03   -0.52718E+00   -0.52794E+00  1200   0.330E+00 0.893E-03
 gam= 0.158 trial= 0.686  step= 0.505 mean= 0.686
 gam= 0.204 g(H,U,f)=  0.640E-01 0.336E-02 0.642E-16 ort(H,U,f) =-0.536E-02 0.528E-02 0.293E-17
CGA:   4    -0.590576820389E+03   -0.83371E-01   -0.83342E-01  1200   0.673E-01-0.841E-04
 gam= 0.204 trial= 0.677  step= 0.558 mean= 0.677
 gam= 0.236 g(H,U,f)=  0.141E-01 0.176E-02 0.309E-16 ort(H,U,f) =-0.297E-02 0.299E-02 0.554E-16
CGA:   5    -0.590595587742E+03   -0.18767E-01   -0.18769E-01  1200   0.159E-01 0.255E-04
 gam= 0.236 trial= 0.671  step= 0.677 mean= 0.671
 gam= 0.315 g(H,U,f)=  0.455E-02 0.455E-03 0.523E-16 ort(H,U,f) =-0.113E-02 0.115E-02 0.532E-16
CGA:   6    -0.590600963841E+03   -0.53761E-02   -0.53761E-02  1200   0.500E-02 0.109E-04
 gam= 0.315 trial= 0.672  step= 0.730 mean= 0.672
 gam= 0.316 g(H,U,f)=  0.148E-02 0.100E-03 0.394E-23 ort(H,U,f) =-0.354E-03 0.346E-03 0.295E-22
CGA:   7    -0.590602790382E+03   -0.18265E-02   -0.18268E-02  1200   0.158E-02-0.825E-05
 gam= 0.316 trial= 0.674  step= 0.708 mean= 0.674
 gam= 0.247 g(H,U,f)=  0.377E-03 0.127E-04 0.378E-23 ort(H,U,f) =-0.554E-04 0.564E-04 0.152E-22
CGA:   8    -0.590603349245E+03   -0.55886E-03   -0.55885E-03  1200   0.390E-03 0.968E-06
 gam= 0.247 trial= 0.676  step= 0.692 mean= 0.676
 gam= 0.218 g(H,U,f)=  0.825E-04 0.243E-05 0.225E-26 ort(H,U,f) =-0.219E-05 0.525E-05 0.198E-24
CGA:   9    -0.590603484329E+03   -0.13508E-03   -0.13506E-03  1200   0.849E-04 0.306E-05
 gam= 0.218 trial= 0.677  step= 0.747 mean= 0.677
 gam= 0.255 g(H,U,f)=  0.212E-04 0.469E-06 0.711E-25 ort(H,U,f) =-0.118E-05 0.194E-06-0.300E-24
CGA:  10    -0.590603516268E+03   -0.31939E-04   -0.31974E-04  1200   0.217E-04-0.989E-06
 gam= 0.255 trial= 0.680  step= 0.790 mean= 0.680
 gam= 0.276 g(H,U,f)=  0.579E-05 0.190E-06 0.482E-25 ort(H,U,f) =-0.668E-06 0.567E-07-0.414E-26
CGA:  11    -0.590603524689E+03   -0.84213E-05   -0.84550E-05  1200   0.598E-05-0.612E-06
 gam= 0.276 trial= 0.686  step= 0.757 mean= 0.686
 gam= 0.241 g(H,U,f)=  0.137E-05 0.662E-07 0.172E-24 ort(H,U,f) = 0.136E-06 0.547E-07 0.981E-25
CGA:  12    -0.590603526894E+03   -0.22047E-05   -0.21980E-05  1200   0.144E-05 0.191E-06
 gam= 0.241 trial= 0.689  step= 0.796 mean= 0.689
 final diagonalization
   9 F= -.59060353E+03 E0= -.59060353E+03  d E =-.293812E+00
 curvature:  -1.26 expect dE=-0.180E+01 dE for cont linesearch -0.877E-05
 trial: gam= 1.88219 g(F)=  0.143E+01 g(S)=  0.000E+00 ort = 0.419E-02 (trialstep = 0.117E+00)
 search vector abs. value=  0.104E+02
 bond charge predicted
 wavefunctions rotated
       N       E                     dE             d eps       ncg     rms          ort
 gam= 0.000 g(H,U,f)=  0.362E+01 0.439E-01 0.424E-19 ort(H,U,f) = 0.000E+00 0.000E+00 0.000E+00
SDA:   1    -0.589150500332E+03    0.14530E+01    0.00000E+00  1200   0.366E+01 0.000E+00
 gam= 0.000 trial= 0.695  step= 0.683 mean= 0.695
 gam= 0.305 g(H,U,f)=  0.108E+01 0.398E-01 0.778E-19 ort(H,U,f) = 0.349E-01-0.373E-01-0.105E-18
CGA:   2    -0.590401761411E+03   -0.12513E+01   -0.12512E+01  1200   0.112E+01-0.235E-02
 gam= 0.305 trial= 0.694  step= 0.514 mean= 0.694
 gam= 0.164 g(H,U,f)=  0.178E+00 0.464E-02 0.106E-18 ort(H,U,f) =-0.303E-02 0.324E-02 0.733E-19
CGA:   3    -0.590688403097E+03   -0.28664E+00   -0.28688E+00  1200   0.183E+00 0.212E-03
 gam= 0.164 trial= 0.685  step= 0.510 mean= 0.685
 gam= 0.213 g(H,U,f)=  0.368E-01 0.198E-02 0.960E-20 ort(H,U,f) =-0.312E-02 0.307E-02 0.275E-19
CGA:   4    -0.590734987433E+03   -0.46584E-01   -0.46570E-01  1200   0.388E-01-0.504E-04
 gam= 0.213 trial= 0.676  step= 0.565 mean= 0.676
 gam= 0.250 g(H,U,f)=  0.868E-02 0.102E-02 0.159E-19 ort(H,U,f) =-0.177E-02 0.179E-02 0.186E-19
CGA:   5    -0.590745951508E+03   -0.10964E-01   -0.10965E-01  1200   0.970E-02 0.202E-04
 gam= 0.250 trial= 0.671  step= 0.687 mean= 0.671
 gam= 0.328 g(H,U,f)=  0.293E-02 0.247E-03 0.425E-20 ort(H,U,f) =-0.639E-03 0.643E-03 0.102E-19
CGA:   6    -0.590749287653E+03   -0.33361E-02   -0.33361E-02  1200   0.318E-02 0.397E-05
 gam= 0.328 trial= 0.672  step= 0.726 mean= 0.672
 gam= 0.313 g(H,U,f)=  0.940E-03 0.535E-04 0.144E-21 ort(H,U,f) =-0.198E-03 0.190E-03 0.124E-20
CGA:   7    -0.590750440744E+03   -0.11531E-02   -0.11533E-02  1200   0.993E-03-0.822E-05
 gam= 0.313 trial= 0.674  step= 0.696 mean= 0.674
 gam= 0.241 g(H,U,f)=  0.232E-03 0.652E-05 0.693E-22 ort(H,U,f) =-0.243E-04 0.262E-04 0.367E-21
CGA:   8    -0.590750785417E+03   -0.34467E-03   -0.34465E-03  1200   0.239E-03 0.195E-05
 gam= 0.241 trial= 0.675  step= 0.685 mean= 0.675
 gam= 0.217 g(H,U,f)=  0.503E-04 0.154E-05 0.643E-25 ort(H,U,f) = 0.661E-07 0.258E-05-0.475E-23
CGA:   9    -0.590750867439E+03   -0.82022E-04   -0.82009E-04  1200   0.518E-04 0.265E-05
 gam= 0.217 trial= 0.676  step= 0.749 mean= 0.676
 gam= 0.262 g(H,U,f)=  0.132E-04 0.375E-06 0.265E-23 ort(H,U,f) =-0.819E-06 0.484E-08-0.670E-23
CGA:  10    -0.590750887020E+03   -0.19581E-04   -0.19611E-04  1200   0.136E-04-0.814E-06
 gam= 0.262 trial= 0.680  step= 0.782 mean= 0.680
 gam= 0.282 g(H,U,f)=  0.367E-05 0.161E-06 0.182E-23 ort(H,U,f) =-0.356E-06-0.611E-08 0.817E-24
CGA:  11    -0.590750892231E+03   -0.52111E-05   -0.52297E-05  1200   0.383E-05-0.362E-06
 gam= 0.282 trial= 0.685  step= 0.725 mean= 0.685
 gam= 0.252 g(H,U,f)=  0.910E-06 0.564E-07 0.321E-23 ort(H,U,f) = 0.186E-06 0.143E-07 0.287E-23
CGA:  12    -0.590750893589E+03   -0.13575E-05   -0.13534E-05  1200   0.967E-06 0.200E-06
 gam= 0.252 trial= 0.687  step= 0.736 mean= 0.687
 final diagonalization
  10 F= -.59075089E+03 E0= -.59075089E+03  d E =-.147367E+00
 ZBRENT: can't locate minimum, use default step
 trial-energy change:   -0.147367  1 .order   -0.147448   -0.167833   -0.127064
 step:   0.4679(harm=  0.4815)  dis= 0.09480  next Energy=  -590.948988 (dE=-0.345E+00)
 bond charge predicted
 wavefunctions rotated
       N       E                     dE             d eps       ncg     rms          ort
 gam= 0.000 g(H,U,f)=  0.323E+02 0.348E+00 0.246E-17 ort(H,U,f) = 0.000E+00 0.000E+00 0.000E+00
SDA:   1    -0.576738354485E+03    0.14013E+02    0.00000E+00  1200   0.326E+02 0.000E+00
 gam= 0.000 trial= 0.689  step= 0.677 mean= 0.689
 gam= 0.312 g(H,U,f)=  0.974E+01 0.449E+00 0.623E-16 ort(H,U,f) = 0.174E+00-0.265E+00-0.754E-16
CGA:   2    -0.587773178315E+03   -0.11035E+02   -0.11034E+02  1200   0.102E+02-0.909E-01
 gam= 0.312 trial= 0.689  step= 0.507 mean= 0.689
 gam= 0.169 g(H,U,f)=  0.166E+01 0.627E-01 0.876E-14 ort(H,U,f) =-0.547E-01 0.711E-01 0.232E-15
CGA:   3    -0.590336861612E+03   -0.25637E+01   -0.25740E+01  1200   0.172E+01 0.165E-01
 gam= 0.169 trial= 0.679  step= 0.523 mean= 0.679
 gam= 0.222 g(H,U,f)=  0.352E+00 0.299E-01 0.111E-15 ort(H,U,f) =-0.502E-01 0.486E-01 0.302E-15
CGA:   4    -0.590788040375E+03   -0.45118E+00   -0.45080E+00  1200   0.382E+00-0.165E-02
 gam= 0.222 trial= 0.672  step= 0.579 mean= 0.672
 gam= 0.270 g(H,U,f)=  0.898E-01 0.135E-01 0.109E-15 ort(H,U,f) =-0.260E-01 0.260E-01 0.134E-15
CGA:   5    -0.590898549875E+03   -0.11051E+00   -0.11052E+00  1200   0.103E+00-0.448E-04
 gam= 0.270 trial= 0.667  step= 0.702 mean= 0.667
 gam= 0.343 g(H,U,f)=  0.323E-01 0.315E-02 0.187E-16 ort(H,U,f) =-0.881E-02 0.889E-02 0.438E-16
CGA:   6    -0.590934805692E+03   -0.36256E-01   -0.36253E-01  1200   0.355E-01 0.784E-04
 gam= 0.343 trial= 0.669  step= 0.720 mean= 0.669
 gam= 0.300 g(H,U,f)=  0.101E-01 0.595E-03 0.125E-18 ort(H,U,f) =-0.245E-02 0.242E-02 0.147E-17
CGA:   7    -0.590947591408E+03   -0.12786E-01   -0.12787E-01  1200   0.107E-01-0.268E-04
 gam= 0.300 trial= 0.671  step= 0.691 mean= 0.671
 gam= 0.237 g(H,U,f)=  0.244E-02 0.814E-04 0.721E-19 ort(H,U,f) =-0.308E-03 0.319E-03 0.379E-18
CGA:   8    -0.590951268583E+03   -0.36772E-02   -0.36771E-02  1200   0.252E-02 0.112E-04
 gam= 0.237 trial= 0.672  step= 0.689 mean= 0.672
 gam= 0.216 g(H,U,f)=  0.526E-03 0.179E-04 0.554E-23 ort(H,U,f) =-0.252E-04 0.336E-04 0.211E-21
CGA:   9    -0.590952138408E+03   -0.86982E-03   -0.86976E-03  1200   0.544E-03 0.836E-05
 gam= 0.216 trial= 0.673  step= 0.737 mean= 0.673
 gam= 0.247 g(H,U,f)=  0.130E-03 0.455E-05 0.263E-20 ort(H,U,f) =-0.633E-05 0.303E-05-0.647E-20
CGA:  10    -0.590952339432E+03   -0.20102E-03   -0.20113E-03  1200   0.135E-03-0.329E-05
 gam= 0.247 trial= 0.676  step= 0.777 mean= 0.676
 gam= 0.277 g(H,U,f)=  0.357E-04 0.159E-05 0.932E-21 ort(H,U,f) =-0.235E-05 0.109E-05 0.695E-21
CGA:  11    -0.590952391325E+03   -0.51894E-04   -0.51957E-04  1200   0.373E-04-0.126E-05
 gam= 0.277 trial= 0.681  step= 0.766 mean= 0.681
 gam= 0.260 g(H,U,f)=  0.921E-05 0.495E-06 0.309E-20 ort(H,U,f) = 0.254E-06 0.421E-06 0.221E-20
CGA:  12    -0.590952405511E+03   -0.14186E-04   -0.14158E-04  1200   0.971E-05 0.675E-06
 gam= 0.260 trial= 0.686  step= 0.794 mean= 0.686
 gam= 0.298 g(H,U,f)=  0.270E-05 0.201E-06 0.162E-21 ort(H,U,f) = 0.801E-07 0.890E-07 0.923E-21
CGA:  13    -0.590952409447E+03   -0.39354E-05   -0.39261E-05  1200   0.290E-05 0.169E-06
 gam= 0.298 trial= 0.691  step= 0.892 mean= 0.691
 final diagonalization
  11 F= -.59095241E+03 E0= -.59095241E+03  d E =-.348883E+00
 curvature:  -1.74 expect dE=-0.139E+01 dE for cont linesearch -0.824E-03
 trial: gam= 0.50365 g(F)=  0.800E+00 g(S)=  0.000E+00 ort = 0.701E-01 (trialstep = 0.187E+00)
 search vector abs. value=  0.350E+01
 bond charge predicted
 wavefunctions rotated
       N       E                     dE             d eps       ncg     rms          ort
 gam= 0.000 g(H,U,f)=  0.279E+01 0.382E-01 0.382E-16 ort(H,U,f) = 0.000E+00 0.000E+00 0.000E+00
SDA:   1    -0.589830962895E+03    0.11214E+01    0.00000E+00  1200   0.283E+01 0.000E+00
 gam= 0.000 trial= 0.701  step= 0.677 mean= 0.701
 gam= 0.316 g(H,U,f)=  0.859E+00 0.347E-01 0.217E-16 ort(H,U,f) = 0.314E-01-0.330E-01-0.343E-16
CGA:   2    -0.590788739728E+03   -0.95778E+00   -0.95774E+00  1200   0.893E+00-0.167E-02
 gam= 0.316 trial= 0.700  step= 0.520 mean= 0.700
 gam= 0.165 g(H,U,f)=  0.143E+00 0.428E-02 0.290E-16 ort(H,U,f) =-0.292E-02 0.310E-02 0.162E-16
CGA:   3    -0.591020637943E+03   -0.23190E+00   -0.23204E+00  1200   0.147E+00 0.178E-03
 gam= 0.165 trial= 0.691  step= 0.509 mean= 0.691
 gam= 0.216 g(H,U,f)=  0.301E-01 0.176E-02 0.222E-17 ort(H,U,f) =-0.274E-02 0.273E-02 0.648E-17
CGA:   4    -0.591058166286E+03   -0.37528E-01   -0.37520E-01  1200   0.318E-01-0.172E-04
 gam= 0.216 trial= 0.682  step= 0.576 mean= 0.682
 gam= 0.252 g(H,U,f)=  0.717E-02 0.862E-03 0.272E-17 ort(H,U,f) =-0.156E-02 0.158E-02 0.353E-17
CGA:   5    -0.591067329271E+03   -0.91630E-02   -0.91639E-02  1200   0.803E-02 0.158E-04
 gam= 0.252 trial= 0.676  step= 0.702 mean= 0.676
 gam= 0.344 g(H,U,f)=  0.256E-02 0.200E-03 0.710E-18 ort(H,U,f) =-0.544E-03 0.545E-03 0.171E-17
CGA:   6    -0.591070150000E+03   -0.28207E-02   -0.28207E-02  1200   0.276E-02 0.116E-05
 gam= 0.344 trial= 0.678  step= 0.727 mean= 0.678
 gam= 0.316 g(H,U,f)=  0.829E-03 0.437E-04 0.127E-19 ort(H,U,f) =-0.160E-03 0.154E-03 0.152E-18
CGA:   7    -0.591071153032E+03   -0.10030E-02   -0.10032E-02  1200   0.872E-03-0.637E-05
 gam= 0.316 trial= 0.680  step= 0.695 mean= 0.680
 gam= 0.240 g(H,U,f)=  0.205E-03 0.460E-05 0.359E-20 ort(H,U,f) =-0.130E-04 0.148E-04 0.320E-19
CGA:   8    -0.591071455480E+03   -0.30245E-03   -0.30243E-03  1200   0.209E-03 0.182E-05
 gam= 0.240 trial= 0.681  step= 0.685 mean= 0.681
 gam= 0.214 g(H,U,f)=  0.436E-04 0.111E-05 0.251E-21 ort(H,U,f) = 0.135E-05 0.113E-05-0.302E-20
CGA:   9    -0.591071527300E+03   -0.71820E-04   -0.71815E-04  1200   0.447E-04 0.248E-05
 gam= 0.214 trial= 0.681  step= 0.752 mean= 0.681
 gam= 0.263 g(H,U,f)=  0.114E-04 0.387E-06 0.108E-20 ort(H,U,f) =-0.510E-06-0.129E-06-0.839E-21
CGA:  10    -0.591071544280E+03   -0.16981E-04   -0.17003E-04  1200   0.118E-04-0.639E-06
 gam= 0.263 trial= 0.685  step= 0.800 mean= 0.685
 gam= 0.295 g(H,U,f)=  0.331E-05 0.170E-06 0.321E-21 ort(H,U,f) =-0.295E-06-0.514E-08 0.493E-21
CGA:  11    -0.591071548905E+03   -0.46248E-05   -0.46419E-05  1200   0.348E-05-0.300E-06
 gam= 0.295 trial= 0.691  step= 0.732 mean= 0.691
 final diagonalization
  12 F= -.59107155E+03 E0= -.59107155E+03  d E =-.119139E+00
 trial-energy change:   -0.119139  1 .order   -0.119222   -0.156334   -0.082109
 step:   0.3942(harm=  0.3942)  dis= 0.03465  next Energy=  -591.117047 (dE=-0.165E+00)
 bond charge predicted
 wavefunctions rotated
       N       E                     dE             d eps       ncg     rms          ort
 gam= 0.000 g(H,U,f)=  0.341E+01 0.467E-01 0.538E-16 ort(H,U,f) = 0.000E+00 0.000E+00 0.000E+00
SDA:   1    -0.589600850988E+03    0.14707E+01    0.00000E+00  1200   0.346E+01 0.000E+00
 gam= 0.000 trial= 0.693  step= 0.677 mean= 0.693
 gam= 0.316 g(H,U,f)=  0.105E+01 0.425E-01 0.394E-16 ort(H,U,f) = 0.379E-01-0.403E-01-0.613E-16
CGA:   2    -0.590771938394E+03   -0.11711E+01   -0.11711E+01  1200   0.109E+01-0.237E-02
 gam= 0.316 trial= 0.692  step= 0.520 mean= 0.692
 gam= 0.164 g(H,U,f)=  0.174E+00 0.525E-02 0.554E-16 ort(H,U,f) =-0.347E-02 0.378E-02 0.300E-16
CGA:   3    -0.591055443646E+03   -0.28351E+00   -0.28370E+00  1200   0.179E+00 0.311E-03
 gam= 0.164 trial= 0.683  step= 0.510 mean= 0.683
 gam= 0.216 g(H,U,f)=  0.365E-01 0.216E-02 0.394E-17 ort(H,U,f) =-0.337E-02 0.335E-02 0.114E-16
CGA:   4    -0.591101187400E+03   -0.45744E-01   -0.45734E-01  1200   0.387E-01-0.269E-04
 gam= 0.216 trial= 0.675  step= 0.575 mean= 0.675
 gam= 0.252 g(H,U,f)=  0.870E-02 0.106E-02 0.461E-17 ort(H,U,f) =-0.192E-02 0.194E-02 0.594E-17
CGA:   5    -0.591112320653E+03   -0.11133E-01   -0.11134E-01  1200   0.976E-02 0.151E-04
 gam= 0.252 trial= 0.670  step= 0.703 mean= 0.670
 gam= 0.344 g(H,U,f)=  0.312E-02 0.248E-03 0.115E-17 ort(H,U,f) =-0.673E-03 0.674E-03 0.276E-17
CGA:   6    -0.591115751596E+03   -0.34309E-02   -0.34309E-02  1200   0.336E-02 0.532E-06
 gam= 0.344 trial= 0.671  step= 0.728 mean= 0.671
 gam= 0.317 g(H,U,f)=  0.101E-02 0.538E-04 0.213E-19 ort(H,U,f) =-0.197E-03 0.190E-03 0.243E-18
CGA:   7    -0.591116975372E+03   -0.12238E-02   -0.12240E-02  1200   0.107E-02-0.719E-05
 gam= 0.317 trial= 0.674  step= 0.696 mean= 0.674
 gam= 0.241 g(H,U,f)=  0.252E-03 0.570E-05 0.625E-20 ort(H,U,f) =-0.167E-04 0.186E-04 0.521E-19
CGA:   8    -0.591117346331E+03   -0.37096E-03   -0.37094E-03  1200   0.257E-03 0.185E-05
 gam= 0.241 trial= 0.675  step= 0.687 mean= 0.675
 gam= 0.215 g(H,U,f)=  0.539E-04 0.138E-05 0.303E-21 ort(H,U,f) = 0.143E-05 0.131E-05-0.417E-20
CGA:   9    -0.591117434894E+03   -0.88563E-04   -0.88546E-04  1200   0.553E-04 0.273E-05
 gam= 0.215 trial= 0.676  step= 0.751 mean= 0.676
 gam= 0.263 g(H,U,f)=  0.141E-04 0.493E-06 0.144E-20 ort(H,U,f) =-0.489E-06-0.167E-06-0.132E-20
CGA:  10    -0.591117455865E+03   -0.20971E-04   -0.20996E-04  1200   0.146E-04-0.656E-06
 gam= 0.263 trial= 0.680  step= 0.800 mean= 0.680
 gam= 0.297 g(H,U,f)=  0.411E-05 0.216E-06 0.421E-21 ort(H,U,f) =-0.323E-06-0.104E-08 0.620E-21
CGA:  11    -0.591117461600E+03   -0.57346E-05   -0.57544E-05  1200   0.432E-05-0.324E-06
 gam= 0.297 trial= 0.686  step= 0.737 mean= 0.686
 gam= 0.270 g(H,U,f)=  0.109E-05 0.759E-07 0.619E-21 ort(H,U,f) = 0.216E-06 0.201E-07 0.758E-21
CGA:  12    -0.591117463163E+03   -0.15627E-05   -0.15569E-05  1200   0.117E-05 0.236E-06
 gam= 0.270 trial= 0.688  step= 0.743 mean= 0.688
 final diagonalization
  13 F= -.59111746E+03 E0= -.59111746E+03  d E =-.165054E+00
 curvature:  -0.83 expect dE=-0.484E+00 dE for cont linesearch -0.803E-05
 trial: gam= 0.78207 g(F)=  0.587E+00 g(S)=  0.000E+00 ort = 0.584E-02 (trialstep = 0.229E+00)
 search vector abs. value=  0.274E+01
 bond charge predicted
 wavefunctions rotated
       N       E                     dE             d eps       ncg     rms          ort
 gam= 0.000 g(H,U,f)=  0.237E+01 0.366E-01 0.227E-16 ort(H,U,f) = 0.000E+00 0.000E+00 0.000E+00
SDA:   1    -0.590201517602E+03    0.91594E+00    0.00000E+00  1200   0.241E+01 0.000E+00
 gam= 0.000 trial= 0.691  step= 0.662 mean= 0.691
 gam= 0.305 g(H,U,f)=  0.702E+00 0.332E-01 0.120E-16 ort(H,U,f) = 0.325E-01-0.322E-01-0.207E-16
CGA:   2    -0.590998370315E+03   -0.79685E+00   -0.79686E+00  1200   0.735E+00 0.226E-03
 gam= 0.305 trial= 0.689  step= 0.528 mean= 0.689
 gam= 0.168 g(H,U,f)=  0.120E+00 0.344E-02 0.242E-17 ort(H,U,f) =-0.891E-03 0.916E-03 0.206E-17
CGA:   3    -0.591192309877E+03   -0.19394E+00   -0.19397E+00  1200   0.123E+00 0.255E-04
 gam= 0.168 trial= 0.681  step= 0.506 mean= 0.681
 gam= 0.206 g(H,U,f)=  0.240E-01 0.136E-02 0.518E-18 ort(H,U,f) =-0.189E-02 0.189E-02 0.130E-17
CGA:   4    -0.591223557239E+03   -0.31247E-01   -0.31246E-01  1200   0.254E-01-0.424E-05
 gam= 0.206 trial= 0.673  step= 0.574 mean= 0.673
 gam= 0.244 g(H,U,f)=  0.552E-02 0.677E-03 0.967E-18 ort(H,U,f) =-0.115E-02 0.117E-02 0.108E-17
CGA:   5    -0.591230846834E+03   -0.72896E-02   -0.72908E-02  1200   0.619E-02 0.253E-04
 gam= 0.244 trial= 0.668  step= 0.687 mean= 0.668
 gam= 0.339 g(H,U,f)=  0.194E-02 0.156E-03 0.218E-18 ort(H,U,f) =-0.385E-03 0.388E-03 0.595E-18
CGA:   6    -0.591232977431E+03   -0.21306E-02   -0.21306E-02  1200   0.210E-02 0.283E-05
 gam= 0.339 trial= 0.669  step= 0.725 mean= 0.669
 gam= 0.324 g(H,U,f)=  0.638E-03 0.416E-04 0.974E-20 ort(H,U,f) =-0.132E-03 0.126E-03 0.895E-19
CGA:   7    -0.591233738374E+03   -0.76094E-03   -0.76113E-03  1200   0.680E-03-0.671E-05
 gam= 0.324 trial= 0.671  step= 0.710 mean= 0.671
 gam= 0.246 g(H,U,f)=  0.164E-03 0.334E-05 0.805E-21 ort(H,U,f) =-0.118E-04 0.129E-04 0.114E-19
CGA:   8    -0.591233978941E+03   -0.24057E-03   -0.24055E-03  1200   0.167E-03 0.111E-05
 gam= 0.246 trial= 0.673  step= 0.697 mean= 0.673
 gam= 0.214 g(H,U,f)=  0.352E-04 0.616E-06 0.558E-21 ort(H,U,f) = 0.118E-05 0.952E-06-0.314E-20
CGA:   9    -0.591234037399E+03   -0.58458E-04   -0.58433E-04  1200   0.358E-04 0.214E-05
 gam= 0.214 trial= 0.675  step= 0.756 mean= 0.675
 gam= 0.258 g(H,U,f)=  0.901E-05 0.218E-06 0.526E-21 ort(H,U,f) =-0.381E-06-0.635E-07-0.117E-21
CGA:  10    -0.591234051104E+03   -0.13705E-04   -0.13723E-04  1200   0.923E-05-0.445E-06
 gam= 0.258 trial= 0.679  step= 0.821 mean= 0.679
 gam= 0.295 g(H,U,f)=  0.262E-05 0.101E-06 0.395E-21 ort(H,U,f) =-0.310E-06 0.149E-07 0.455E-21
CGA:  11    -0.591234054824E+03   -0.37198E-05   -0.37403E-05  1200   0.272E-05-0.296E-06
 gam= 0.295 trial= 0.686  step= 0.756 mean= 0.686
 final diagonalization
  14 F= -.59123405E+03 E0= -.59123405E+03  d E =-.116592E+00
 trial-energy change:   -0.116592  1 .order   -0.116620   -0.135128   -0.098113
 step:   0.8344(harm=  0.8344)  dis= 0.08130  next Energy=  -591.364116 (dE=-0.247E+00)
 bond charge predicted
 wavefunctions rotated
       N       E                     dE             d eps       ncg     rms          ort
 gam= 0.000 g(H,U,f)=  0.166E+02 0.250E+00 0.273E-16 ort(H,U,f) = 0.000E+00 0.000E+00 0.000E+00
SDA:   1    -0.584123706534E+03    0.71103E+01    0.00000E+00  1200   0.169E+02 0.000E+00
 gam= 0.000 trial= 0.689  step= 0.661 mean= 0.689
 gam= 0.306 g(H,U,f)=  0.493E+01 0.239E+00 0.250E-14 ort(H,U,f) = 0.224E+00-0.221E+00-0.395E-14
CGA:   2    -0.589707150877E+03   -0.55834E+01   -0.55836E+01  1200   0.517E+01 0.287E-02
 gam= 0.306 trial= 0.688  step= 0.525 mean= 0.688
 gam= 0.170 g(H,U,f)=  0.852E+00 0.267E-01 0.442E-15 ort(H,U,f) =-0.667E-02 0.114E-01 0.114E-15
CGA:   3    -0.591064225748E+03   -0.13571E+01   -0.13587E+01  1200   0.879E+00 0.477E-02
 gam= 0.170 trial= 0.680  step= 0.508 mean= 0.680
 gam= 0.208 g(H,U,f)=  0.172E+00 0.111E-01 0.105E-15 ort(H,U,f) =-0.160E-01 0.160E-01 0.245E-15
CGA:   4    -0.591287771883E+03   -0.22355E+00   -0.22351E+00  1200   0.183E+00-0.144E-04
 gam= 0.208 trial= 0.671  step= 0.577 mean= 0.671
 gam= 0.249 g(H,U,f)=  0.401E-01 0.543E-02 0.131E-15 ort(H,U,f) =-0.955E-02 0.962E-02 0.152E-15
CGA:   5    -0.591340629159E+03   -0.52857E-01   -0.52862E-01  1200   0.455E-01 0.692E-04
 gam= 0.249 trial= 0.666  step= 0.690 mean= 0.666
 gam= 0.342 g(H,U,f)=  0.143E-01 0.127E-02 0.243E-16 ort(H,U,f) =-0.323E-02 0.325E-02 0.618E-16
CGA:   6    -0.591356346554E+03   -0.15717E-01   -0.15717E-01  1200   0.155E-01 0.194E-04
 gam= 0.342 trial= 0.668  step= 0.722 mean= 0.668
 gam= 0.320 g(H,U,f)=  0.465E-02 0.320E-03 0.966E-18 ort(H,U,f) =-0.104E-02 0.103E-02 0.794E-17
CGA:   7    -0.591361959066E+03   -0.56125E-02   -0.56129E-02  1200   0.497E-02-0.131E-04
 gam= 0.320 trial= 0.670  step= 0.709 mean= 0.670
 gam= 0.246 g(H,U,f)=  0.119E-02 0.292E-04 0.187E-18 ort(H,U,f) =-0.113E-03 0.117E-03 0.147E-17
CGA:   8    -0.591363719485E+03   -0.17604E-02   -0.17603E-02  1200   0.122E-02 0.378E-05
 gam= 0.246 trial= 0.672  step= 0.701 mean= 0.672
 gam= 0.215 g(H,U,f)=  0.258E-03 0.507E-05 0.709E-20 ort(H,U,f) =-0.413E-05 0.973E-05-0.110E-18
CGA:   9    -0.591364147724E+03   -0.42824E-03   -0.42816E-03  1200   0.263E-03 0.560E-05
 gam= 0.215 trial= 0.674  step= 0.744 mean= 0.674
 gam= 0.248 g(H,U,f)=  0.634E-04 0.175E-05 0.142E-19 ort(H,U,f) =-0.134E-05-0.446E-07-0.250E-19
CGA:  10    -0.591364245929E+03   -0.98205E-04   -0.98254E-04  1200   0.651E-04-0.138E-05
 gam= 0.248 trial= 0.677  step= 0.809 mean= 0.677
 gam= 0.289 g(H,U,f)=  0.181E-04 0.740E-06 0.120E-19 ort(H,U,f) =-0.120E-05 0.243E-06 0.808E-20
CGA:  11    -0.591364272070E+03   -0.26141E-04   -0.26204E-04  1200   0.188E-04-0.960E-06
 gam= 0.289 trial= 0.684  step= 0.795 mean= 0.684
 gam= 0.265 g(H,U,f)=  0.478E-05 0.207E-06 0.111E-19 ort(H,U,f) = 0.146E-06 0.214E-06 0.147E-19
CGA:  12    -0.591364279457E+03   -0.73865E-05   -0.73668E-05  1200   0.498E-05 0.360E-06
 gam= 0.265 trial= 0.689  step= 0.861 mean= 0.689
 gam= 0.307 g(H,U,f)=  0.147E-05 0.612E-07 0.204E-21 ort(H,U,f) =-0.119E-06 0.811E-07 0.215E-20
CGA:  13    -0.591364281640E+03   -0.21832E-05   -0.21874E-05  1200   0.153E-05-0.376E-07
 gam= 0.307 trial= 0.698  step= 0.951 mean= 0.698
 final diagonalization
  15 F= -.59136428E+03 E0= -.59136428E+03  d E =-.246818E+00
 curvature:  -1.93 expect dE=-0.192E+01 dE for cont linesearch -0.122E-05
 trial: gam= 1.60994 g(F)=  0.996E+00 g(S)=  0.000E+00 ort = 0.132E-02 (trialstep = 0.118E+00)
 search vector abs. value=  0.809E+01
 bond charge predicted
 wavefunctions rotated
       N       E                     dE             d eps       ncg     rms          ort
 gam= 0.000 g(H,U,f)=  0.157E+01 0.179E-01 0.387E-14 ort(H,U,f) = 0.000E+00 0.000E+00 0.000E+00
SDA:   1    -0.590782005049E+03    0.58227E+00    0.00000E+00  1200   0.158E+01 0.000E+00
 gam= 0.000 trial= 0.711  step= 0.681 mean= 0.711
 gam= 0.285 g(H,U,f)=  0.438E+00 0.131E-01 0.223E-16 ort(H,U,f) = 0.147E-01-0.139E-01-0.211E-16
CGA:   2    -0.591320757221E+03   -0.53875E+00   -0.53878E+00  1200   0.451E+00 0.792E-03
 gam= 0.285 trial= 0.709  step= 0.531 mean= 0.709
 gam= 0.165 g(H,U,f)=  0.726E-01 0.162E-02 0.220E-15 ort(H,U,f) =-0.834E-03 0.772E-03 0.742E-15
CGA:   3    -0.591440616341E+03   -0.11986E+00   -0.11984E+00  1200   0.742E-01-0.618E-04
 gam= 0.165 trial= 0.700  step= 0.495 mean= 0.700
 gam= 0.206 g(H,U,f)=  0.147E-01 0.601E-03 0.167E-15 ort(H,U,f) =-0.892E-03 0.897E-03 0.269E-15
CGA:   4    -0.591458972661E+03   -0.18356E-01   -0.18360E-01  1200   0.153E-01 0.427E-05
 gam= 0.206 trial= 0.690  step= 0.547 mean= 0.690
 gam= 0.232 g(H,U,f)=  0.322E-02 0.336E-03 0.136E-15 ort(H,U,f) =-0.535E-03 0.556E-03 0.165E-15
CGA:   5    -0.591463163477E+03   -0.41908E-02   -0.41923E-02  1200   0.356E-02 0.216E-04
 gam= 0.232 trial= 0.683  step= 0.663 mean= 0.683
 gam= 0.314 g(H,U,f)=  0.102E-02 0.928E-04 0.146E-16 ort(H,U,f) =-0.220E-03 0.220E-03 0.476E-16
CGA:   6    -0.591464344753E+03   -0.11813E-02   -0.11813E-02  1200   0.112E-02 0.568E-06
 gam= 0.314 trial= 0.682  step= 0.722 mean= 0.682
 gam= 0.337 g(H,U,f)=  0.354E-03 0.226E-04 0.190E-17 ort(H,U,f) =-0.738E-04 0.684E-04 0.954E-17
CGA:   7    -0.591464747929E+03   -0.40318E-03   -0.40328E-03  1200   0.377E-03-0.543E-05
 gam= 0.337 trial= 0.684  step= 0.713 mean= 0.684
 gam= 0.259 g(H,U,f)=  0.945E-04 0.291E-05 0.699E-19 ort(H,U,f) =-0.116E-04 0.130E-04 0.904E-18
CGA:   8    -0.591464881535E+03   -0.13361E-03   -0.13359E-03  1200   0.974E-04 0.140E-05
 gam= 0.259 trial= 0.685  step= 0.692 mean= 0.685
 gam= 0.215 g(H,U,f)=  0.205E-04 0.416E-06 0.883E-20 ort(H,U,f) = 0.584E-06 0.115E-05-0.105E-18
CGA:   9    -0.591464915396E+03   -0.33861E-04   -0.33855E-04  1200   0.210E-04 0.173E-05
 gam= 0.215 trial= 0.686  step= 0.749 mean= 0.686
 gam= 0.253 g(H,U,f)=  0.520E-05 0.977E-07 0.711E-20 ort(H,U,f) =-0.381E-06 0.173E-07-0.122E-19
CGA:  10    -0.591464923370E+03   -0.79743E-05   -0.79860E-05  1200   0.529E-05-0.363E-06
 gam= 0.253 trial= 0.689  step= 0.795 mean= 0.689
 gam= 0.283 g(H,U,f)=  0.145E-05 0.445E-07 0.205E-19 ort(H,U,f) =-0.201E-06-0.127E-08 0.694E-20
CGA:  11    -0.591464925426E+03   -0.20554E-05   -0.20662E-05  1200   0.150E-05-0.202E-06
 gam= 0.283 trial= 0.694  step= 0.698 mean= 0.694
 final diagonalization
  16 F= -.59146493E+03 E0= -.59146493E+03  d E =-.100644E+00
 trial-energy change:   -0.100644  1 .order   -0.100602   -0.118062   -0.083142
 step:   0.3998(harm=  0.3998)  dis= 0.07090  next Energy=  -591.563863 (dE=-0.200E+00)
 bond charge predicted
 wavefunctions rotated
       N       E                     dE             d eps       ncg     rms          ort
 gam= 0.000 g(H,U,f)=  0.892E+01 0.103E+00 0.646E-17 ort(H,U,f) = 0.000E+00 0.000E+00 0.000E+00
SDA:   1    -0.587672520639E+03    0.37924E+01    0.00000E+00  1200   0.903E+01 0.000E+00
 gam= 0.000 trial= 0.694  step= 0.680 mean= 0.694
 gam= 0.283 g(H,U,f)=  0.248E+01 0.743E-01 0.231E-18 ort(H,U,f) = 0.896E-01-0.789E-01-0.305E-18
CGA:   2    -0.590740256963E+03   -0.30677E+01   -0.30679E+01  1200   0.256E+01 0.107E-01
 gam= 0.283 trial= 0.694  step= 0.532 mean= 0.694
 gam= 0.166 g(H,U,f)=  0.415E+00 0.953E-02 0.100E-20 ort(H,U,f) =-0.518E-02 0.553E-02 0.210E-20
CGA:   3    -0.591421996040E+03   -0.68174E+00   -0.68172E+00  1200   0.425E+00 0.347E-03
 gam= 0.166 trial= 0.685  step= 0.495 mean= 0.685
 gam= 0.209 g(H,U,f)=  0.849E-01 0.377E-02 0.195E-15 ort(H,U,f) =-0.560E-02 0.569E-02 0.270E-15
CGA:   4    -0.591526952319E+03   -0.10496E+00   -0.10499E+00  1200   0.887E-01 0.882E-04
 gam= 0.209 trial= 0.676  step= 0.546 mean= 0.676
 gam= 0.235 g(H,U,f)=  0.188E-01 0.209E-02 0.125E-15 ort(H,U,f) =-0.345E-02 0.351E-02 0.120E-15
CGA:   5    -0.591551182102E+03   -0.24230E-01   -0.24233E-01  1200   0.209E-01 0.535E-04
 gam= 0.235 trial= 0.669  step= 0.663 mean= 0.669
 gam= 0.313 g(H,U,f)=  0.596E-02 0.577E-03 0.781E-17 ort(H,U,f) =-0.139E-02 0.139E-02 0.205E-16
CGA:   6    -0.591558099920E+03   -0.69178E-02   -0.69178E-02  1200   0.653E-02 0.581E-05
 gam= 0.313 trial= 0.669  step= 0.720 mean= 0.669
 gam= 0.335 g(H,U,f)=  0.205E-02 0.140E-03 0.717E-18 ort(H,U,f) =-0.446E-03 0.436E-03 0.298E-17
CGA:   7    -0.591560451845E+03   -0.23519E-02   -0.23522E-02  1200   0.219E-02-0.953E-05
 gam= 0.335 trial= 0.672  step= 0.713 mean= 0.672
 gam= 0.260 g(H,U,f)=  0.549E-03 0.188E-04 0.119E-18 ort(H,U,f) =-0.813E-04 0.855E-04 0.542E-18
CGA:   8    -0.591561230555E+03   -0.77871E-03   -0.77862E-03  1200   0.568E-03 0.420E-05
 gam= 0.260 trial= 0.674  step= 0.697 mean= 0.674
 gam= 0.216 g(H,U,f)=  0.120E-03 0.266E-05 0.163E-20 ort(H,U,f) =-0.379E-05 0.796E-05 0.265E-19
CGA:   9    -0.591561428912E+03   -0.19836E-03   -0.19831E-03  1200   0.122E-03 0.418E-05
 gam= 0.216 trial= 0.675  step= 0.737 mean= 0.675
 gam= 0.241 g(H,U,f)=  0.289E-04 0.600E-06 0.616E-22 ort(H,U,f) =-0.122E-05 0.309E-06 0.115E-20
CGA:  10    -0.591561474325E+03   -0.45413E-04   -0.45441E-04  1200   0.295E-04-0.911E-06
 gam= 0.241 trial= 0.678  step= 0.784 mean= 0.678
 gam= 0.274 g(H,U,f)=  0.784E-05 0.244E-06 0.183E-21 ort(H,U,f) =-0.564E-06 0.491E-07-0.594E-21
CGA:  11    -0.591561485761E+03   -0.11436E-04   -0.11463E-04  1200   0.808E-05-0.514E-06
 gam= 0.274 trial= 0.683  step= 0.755 mean= 0.683
 gam= 0.259 g(H,U,f)=  0.200E-05 0.926E-07 0.239E-21 ort(H,U,f) = 0.254E-06 0.777E-07 0.242E-22
CGA:  12    -0.591561488770E+03   -0.30096E-05   -0.29976E-05  1200   0.210E-05 0.332E-06
 gam= 0.259 trial= 0.687  step= 0.837 mean= 0.687
 final diagonalization
  17 F= -.59156149E+03 E0= -.59156149E+03  d E =-.197207E+00
 curvature:  -1.62 expect dE=-0.871E+00 dE for cont linesearch -0.102E-03
 trial: gam= 0.57329 g(F)=  0.538E+00 g(S)=  0.000E+00 ort =-0.225E-01 (trialstep = 0.175E+00)
 search vector abs. value=  0.317E+01
 bond charge predicted
 wavefunctions rotated
       N       E                     dE             d eps       ncg     rms          ort
 gam= 0.000 g(H,U,f)=  0.124E+01 0.156E-01 0.103E-13 ort(H,U,f) = 0.000E+00 0.000E+00 0.000E+00
SDA:   1    -0.591098207856E+03    0.46328E+00    0.00000E+00  1200   0.126E+01 0.000E+00
 gam= 0.000 trial= 0.694  step= 0.672 mean= 0.694
 gam= 0.283 g(H,U,f)=  0.347E+00 0.841E-02 0.260E-17 ort(H,U,f) = 0.940E-02-0.958E-02-0.338E-17
CGA:   2    -0.591520982294E+03   -0.42277E+00   -0.42277E+00  1200   0.355E+00-0.177E-03
 gam= 0.283 trial= 0.693  step= 0.541 mean= 0.693
 gam= 0.164 g(H,U,f)=  0.569E-01 0.149E-02 0.458E-19 ort(H,U,f) =-0.623E-03 0.623E-03 0.176E-18
CGA:   3    -0.591617111198E+03   -0.96129E-01   -0.96141E-01  1200   0.584E-01-0.481E-06
 gam= 0.164 trial= 0.686  step= 0.499 mean= 0.686
 gam= 0.212 g(H,U,f)=  0.118E-01 0.521E-03 0.301E-20 ort(H,U,f) =-0.791E-03 0.795E-03 0.184E-19
CGA:   4    -0.591631682124E+03   -0.14571E-01   -0.14570E-01  1200   0.124E-01 0.328E-05
 gam= 0.212 trial= 0.676  step= 0.551 mean= 0.676
 gam= 0.237 g(H,U,f)=  0.265E-02 0.280E-03 0.546E-19 ort(H,U,f) =-0.477E-03 0.488E-03 0.301E-19
CGA:   5    -0.591635089503E+03   -0.34074E-02   -0.34081E-02  1200   0.293E-02 0.110E-04
 gam= 0.237 trial= 0.670  step= 0.662 mean= 0.670
 gam= 0.328 g(H,U,f)=  0.866E-03 0.931E-04 0.112E-19 ort(H,U,f) =-0.213E-03 0.211E-03 0.286E-19
CGA:   6    -0.591636059182E+03   -0.96968E-03   -0.96967E-03  1200   0.959E-03-0.219E-05
 gam= 0.328 trial= 0.670  step= 0.714 mean= 0.670
 gam= 0.331 g(H,U,f)=  0.298E-03 0.192E-04 0.563E-21 ort(H,U,f) =-0.684E-04 0.633E-04 0.464E-20
CGA:   7    -0.591636401119E+03   -0.34194E-03   -0.34205E-03  1200   0.317E-03-0.512E-05
 gam= 0.331 trial= 0.672  step= 0.705 mean= 0.672
 gam= 0.251 g(H,U,f)=  0.766E-04 0.293E-05 0.145E-20 ort(H,U,f) =-0.127E-04 0.131E-04 0.349E-20
CGA:   8    -0.591636512363E+03   -0.11124E-03   -0.11124E-03  1200   0.795E-04 0.369E-06
 gam= 0.251 trial= 0.674  step= 0.691 mean= 0.674
 gam= 0.211 g(H,U,f)=  0.165E-04 0.283E-06 0.475E-23 ort(H,U,f) = 0.185E-07 0.144E-05 0.123E-21
CGA:   9    -0.591636539864E+03   -0.27500E-04   -0.27488E-04  1200   0.167E-04 0.146E-05
 gam= 0.211 trial= 0.674  step= 0.748 mean= 0.674
 gam= 0.256 g(H,U,f)=  0.422E-05 0.678E-07 0.292E-23 ort(H,U,f) =-0.262E-06 0.224E-07 0.245E-22
CGA:  10    -0.591636546230E+03   -0.63661E-05   -0.63747E-05  1200   0.428E-05-0.240E-06
 gam= 0.256 trial= 0.678  step= 0.784 mean= 0.678
 gam= 0.282 g(H,U,f)=  0.117E-05 0.326E-07 0.114E-23 ort(H,U,f) =-0.138E-06 0.244E-08 0.543E-23
CGA:  11    -0.591636547877E+03   -0.16474E-05   -0.16548E-05  1200   0.121E-05-0.135E-06
 gam= 0.282 trial= 0.683  step= 0.707 mean= 0.683
 final diagonalization
  18 F= -.59163655E+03 E0= -.59163655E+03  d E =-.750591E-01
 trial-energy change:   -0.075059  1 .order   -0.075096   -0.091609   -0.058583
 step:   0.4842(harm=  0.4842)  dis= 0.05748  next Energy=  -591.688543 (dE=-0.127E+00)
 bond charge predicted
 wavefunctions rotated
       N       E                     dE             d eps       ncg     rms          ort
 gam= 0.000 g(H,U,f)=  0.391E+01 0.499E-01 0.323E-14 ort(H,U,f) = 0.000E+00 0.000E+00 0.000E+00
SDA:   1    -0.589995913758E+03    0.16406E+01    0.00000E+00  1200   0.396E+01 0.000E+00
 gam= 0.000 trial= 0.685  step= 0.672 mean= 0.685
 gam= 0.283 g(H,U,f)=  0.109E+01 0.266E-01 0.291E-14 ort(H,U,f) = 0.290E-01-0.301E-01-0.571E-14
CGA:   2    -0.591325938182E+03   -0.13300E+01   -0.13300E+01  1200   0.112E+01-0.109E-02
 gam= 0.283 trial= 0.684  step= 0.541 mean= 0.684
 gam= 0.164 g(H,U,f)=  0.179E+00 0.468E-02 0.216E-14 ort(H,U,f) =-0.167E-02 0.205E-02 0.163E-14
CGA:   3    -0.591628317562E+03   -0.30238E+00   -0.30248E+00  1200   0.184E+00 0.380E-03
 gam= 0.164 trial= 0.677  step= 0.500 mean= 0.677
 gam= 0.212 g(H,U,f)=  0.372E-01 0.169E-02 0.351E-15 ort(H,U,f) =-0.256E-02 0.257E-02 0.900E-15
CGA:   4    -0.591674334256E+03   -0.46017E-01   -0.46012E-01  1200   0.389E-01 0.600E-05
 gam= 0.212 trial= 0.668  step= 0.553 mean= 0.668
 gam= 0.238 g(H,U,f)=  0.835E-02 0.902E-03 0.482E-15 ort(H,U,f) =-0.156E-02 0.158E-02 0.656E-15
CGA:   5    -0.591685093913E+03   -0.10760E-01   -0.10761E-01  1200   0.925E-02 0.198E-04
 gam= 0.238 trial= 0.662  step= 0.663 mean= 0.662
 gam= 0.327 g(H,U,f)=  0.273E-02 0.297E-03 0.165E-15 ort(H,U,f) =-0.682E-03 0.680E-03 0.388E-15
CGA:   6    -0.591688162192E+03   -0.30683E-02   -0.30683E-02  1200   0.303E-02-0.228E-05
 gam= 0.327 trial= 0.662  step= 0.714 mean= 0.662
 gam= 0.327 g(H,U,f)=  0.930E-03 0.622E-04 0.640E-17 ort(H,U,f) =-0.214E-03 0.207E-03 0.574E-16
CGA:   7    -0.591689242794E+03   -0.10806E-02   -0.10808E-02  1200   0.992E-03-0.795E-05
 gam= 0.327 trial= 0.665  step= 0.707 mean= 0.665
 gam= 0.251 g(H,U,f)=  0.240E-03 0.951E-05 0.872E-18 ort(H,U,f) =-0.416E-04 0.423E-04 0.970E-17
CGA:   8    -0.591689592558E+03   -0.34976E-03   -0.34975E-03  1200   0.249E-03 0.730E-06
 gam= 0.251 trial= 0.667  step= 0.696 mean= 0.667
 gam= 0.212 g(H,U,f)=  0.519E-04 0.930E-06 0.891E-19 ort(H,U,f) =-0.213E-05 0.470E-05-0.113E-17
CGA:   9    -0.591689679312E+03   -0.86754E-04   -0.86718E-04  1200   0.528E-04 0.257E-05
 gam= 0.212 trial= 0.668  step= 0.742 mean= 0.668
 gam= 0.249 g(H,U,f)=  0.129E-04 0.211E-06 0.462E-18 ort(H,U,f) =-0.576E-06 0.100E-06-0.361E-18
CGA:  10    -0.591689699075E+03   -0.19763E-04   -0.19781E-04  1200   0.131E-04-0.476E-06
 gam= 0.249 trial= 0.672  step= 0.781 mean= 0.672
 gam= 0.279 g(H,U,f)=  0.357E-05 0.999E-07 0.130E-23 ort(H,U,f) =-0.281E-06 0.129E-07 0.625E-23
CGA:  11    -0.591689704143E+03   -0.50677E-05   -0.50826E-05  1200   0.367E-05-0.268E-06
 gam= 0.279 trial= 0.677  step= 0.745 mean= 0.677
 gam= 0.258 g(H,U,f)=  0.907E-06 0.397E-07 0.677E-23 ort(H,U,f) = 0.201E-06 0.243E-07-0.732E-23
CGA:  12    -0.591689705489E+03   -0.13463E-05   -0.13385E-05  1200   0.947E-06 0.226E-06
 gam= 0.258 trial= 0.681  step= 0.808 mean= 0.681
 final diagonalization
  19 F= -.59168971E+03 E0= -.59168971E+03  d E =-.128217E+00
 curvature:  -1.46 expect dE=-0.720E+00 dE for cont linesearch -0.416E-04
 trial: gam= 0.84503 g(F)=  0.492E+00 g(S)=  0.000E+00 ort = 0.949E-02 (trialstep = 0.236E+00)
 search vector abs. value=  0.277E+01
 bond charge predicted
 wavefunctions rotated
       N       E                     dE             d eps       ncg     rms          ort
 gam= 0.000 g(H,U,f)=  0.252E+01 0.311E-01 0.901E-15 ort(H,U,f) = 0.000E+00 0.000E+00 0.000E+00
SDA:   1    -0.590663587135E+03    0.10261E+01    0.00000E+00  1200   0.255E+01 0.000E+00
 gam= 0.000 trial= 0.687  step= 0.683 mean= 0.687
 gam= 0.297 g(H,U,f)=  0.733E+00 0.233E-01 0.257E-15 ort(H,U,f) = 0.236E-01-0.245E-01-0.517E-15
CGA:   2    -0.591535317646E+03   -0.87173E+00   -0.87173E+00  1200   0.757E+00-0.936E-03
 gam= 0.297 trial= 0.687  step= 0.540 mean= 0.687
 gam= 0.167 g(H,U,f)=  0.123E+00 0.360E-02 0.428E-15 ort(H,U,f) =-0.192E-02 0.217E-02 0.218E-15
CGA:   3    -0.591739457616E+03   -0.20414E+00   -0.20424E+00  1200   0.127E+00 0.249E-03
 gam= 0.167 trial= 0.680  step= 0.502 mean= 0.680
 gam= 0.222 g(H,U,f)=  0.269E-01 0.129E-02 0.491E-16 ort(H,U,f) =-0.211E-02 0.209E-02 0.150E-15
CGA:   4    -0.591771249852E+03   -0.31792E-01   -0.31784E-01  1200   0.282E-01-0.162E-04
 gam= 0.222 trial= 0.671  step= 0.559 mean= 0.671
 gam= 0.259 g(H,U,f)=  0.660E-02 0.705E-03 0.851E-16 ort(H,U,f) =-0.124E-02 0.125E-02 0.119E-15
CGA:   5    -0.591779118802E+03   -0.78689E-02   -0.78696E-02  1200   0.730E-02 0.934E-05
 gam= 0.259 trial= 0.665  step= 0.678 mean= 0.665
 gam= 0.342 g(H,U,f)=  0.230E-02 0.199E-03 0.330E-16 ort(H,U,f) =-0.472E-03 0.473E-03 0.786E-16
CGA:   6    -0.591781594599E+03   -0.24758E-02   -0.24758E-02  1200   0.250E-02 0.156E-05
 gam= 0.342 trial= 0.666  step= 0.714 mean= 0.666
 gam= 0.320 g(H,U,f)=  0.761E-03 0.398E-04 0.189E-18 ort(H,U,f) =-0.138E-03 0.133E-03 0.472E-17
CGA:   7    -0.591782487571E+03   -0.89297E-03   -0.89309E-03  1200   0.800E-03-0.484E-05
 gam= 0.320 trial= 0.668  step= 0.694 mean= 0.668
 gam= 0.242 g(H,U,f)=  0.189E-03 0.474E-05 0.520E-19 ort(H,U,f) =-0.211E-04 0.211E-04 0.953E-18
CGA:   8    -0.591782764943E+03   -0.27737E-03   -0.27737E-03  1200   0.193E-03 0.206E-07
 gam= 0.242 trial= 0.670  step= 0.691 mean= 0.670
 gam= 0.214 g(H,U,f)=  0.408E-04 0.492E-06 0.643E-19 ort(H,U,f) = 0.554E-07 0.184E-05-0.338E-18
CGA:   9    -0.591782831768E+03   -0.66825E-04   -0.66805E-04  1200   0.413E-04 0.190E-05
 gam= 0.214 trial= 0.671  step= 0.738 mean= 0.671
 gam= 0.255 g(H,U,f)=  0.104E-04 0.173E-06 0.142E-18 ort(H,U,f) =-0.376E-06-0.137E-07-0.123E-19
CGA:  10    -0.591782847150E+03   -0.15382E-04   -0.15395E-04  1200   0.105E-04-0.389E-06
 gam= 0.255 trial= 0.674  step= 0.796 mean= 0.674
 gam= 0.290 g(H,U,f)=  0.298E-05 0.723E-07 0.305E-19 ort(H,U,f) =-0.288E-06 0.147E-07 0.687E-19
CGA:  11    -0.591782851290E+03   -0.41404E-05   -0.41569E-05  1200   0.306E-05-0.273E-06
 gam= 0.290 trial= 0.680  step= 0.762 mean= 0.680
 final diagonalization
  20 F= -.59178285E+03 E0= -.59178285E+03  d E =-.931458E-01
 trial-energy change:   -0.093146  1 .order   -0.093142   -0.118332   -0.067952
 step:   0.5554(harm=  0.5554)  dis= 0.05930  next Energy=  -591.828675 (dE=-0.139E+00)
 bond charge predicted
 wavefunctions rotated
       N       E                     dE             d eps       ncg     rms          ort
 gam= 0.000 g(H,U,f)=  0.458E+01 0.560E-01 0.431E-15 ort(H,U,f) = 0.000E+00 0.000E+00 0.000E+00
SDA:   1    -0.589795845890E+03    0.19870E+01    0.00000E+00  1200   0.464E+01 0.000E+00
 gam= 0.000 trial= 0.684  step= 0.682 mean= 0.684
 gam= 0.298 g(H,U,f)=  0.134E+01 0.430E-01 0.278E-15 ort(H,U,f) = 0.419E-01-0.444E-01-0.565E-15
CGA:   2    -0.591377103855E+03   -0.15813E+01   -0.15813E+01  1200   0.138E+01-0.249E-02
 gam= 0.298 trial= 0.684  step= 0.539 mean= 0.684
 gam= 0.168 g(H,U,f)=  0.225E+00 0.667E-02 0.293E-15 ort(H,U,f) =-0.347E-02 0.431E-02 0.125E-15
CGA:   3    -0.591748650666E+03   -0.37155E+00   -0.37182E+00  1200   0.232E+00 0.838E-03
 gam= 0.168 trial= 0.677  step= 0.503 mean= 0.677
 gam= 0.222 g(H,U,f)=  0.490E-01 0.242E-02 0.236E-16 ort(H,U,f) =-0.399E-02 0.395E-02 0.726E-16
CGA:   4    -0.591806942355E+03   -0.58292E-01   -0.58271E-01  1200   0.514E-01-0.480E-04
 gam= 0.222 trial= 0.668  step= 0.561 mean= 0.668
 gam= 0.259 g(H,U,f)=  0.120E-01 0.131E-02 0.334E-16 ort(H,U,f) =-0.233E-02 0.234E-02 0.463E-16
CGA:   5    -0.591821357550E+03   -0.14415E-01   -0.14416E-01  1200   0.133E-01 0.935E-05
 gam= 0.259 trial= 0.663  step= 0.681 mean= 0.663
 gam= 0.343 g(H,U,f)=  0.421E-02 0.362E-03 0.140E-16 ort(H,U,f) =-0.874E-03 0.877E-03 0.328E-16
CGA:   6    -0.591825895230E+03   -0.45377E-02   -0.45376E-02  1200   0.457E-02 0.330E-05
 gam= 0.343 trial= 0.664  step= 0.715 mean= 0.664
 gam= 0.318 g(H,U,f)=  0.138E-02 0.723E-04 0.996E-19 ort(H,U,f) =-0.250E-03 0.244E-03 0.224E-17
CGA:   7    -0.591827529646E+03   -0.16344E-02   -0.16346E-02  1200   0.145E-02-0.645E-05
 gam= 0.318 trial= 0.666  step= 0.695 mean= 0.666
 gam= 0.241 g(H,U,f)=  0.341E-03 0.869E-05 0.562E-19 ort(H,U,f) =-0.376E-04 0.377E-04 0.666E-18
CGA:   8    -0.591828033473E+03   -0.50383E-03   -0.50382E-03  1200   0.350E-03 0.147E-06
 gam= 0.241 trial= 0.668  step= 0.693 mean= 0.668
 gam= 0.214 g(H,U,f)=  0.738E-04 0.968E-06 0.160E-19 ort(H,U,f) =-0.752E-06 0.328E-05-0.127E-18
CGA:   9    -0.591828154603E+03   -0.12113E-03   -0.12110E-03  1200   0.748E-04 0.252E-05
 gam= 0.214 trial= 0.669  step= 0.736 mean= 0.669
 gam= 0.253 g(H,U,f)=  0.186E-04 0.335E-06 0.484E-19 ort(H,U,f) =-0.541E-06-0.155E-07-0.210E-19
CGA:  10    -0.591828182324E+03   -0.27721E-04   -0.27740E-04  1200   0.189E-04-0.557E-06
 gam= 0.253 trial= 0.672  step= 0.792 mean= 0.672
 gam= 0.287 g(H,U,f)=  0.529E-05 0.132E-06 0.976E-20 ort(H,U,f) =-0.375E-06 0.371E-07 0.210E-19
CGA:  11    -0.591828189738E+03   -0.74140E-05   -0.74342E-05  1200   0.542E-05-0.338E-06
 gam= 0.287 trial= 0.678  step= 0.778 mean= 0.678
 gam= 0.268 g(H,U,f)=  0.141E-05 0.437E-07 0.162E-19 ort(H,U,f) = 0.146E-06 0.526E-07 0.216E-19
CGA:  12    -0.591828191820E+03   -0.20827E-05   -0.20727E-05  1200   0.145E-05 0.199E-06
 gam= 0.268 trial= 0.683  step= 0.823 mean= 0.683
 final diagonalization
  21 F= -.59182819E+03 E0= -.59182819E+03  d E =-.138486E+00
 curvature:  -1.54 expect dE=-0.106E+01 dE for cont linesearch -0.645E-05
 trial: gam= 1.47253 g(F)=  0.692E+00 g(S)=  0.000E+00 ort =-0.341E-02 (trialstep = 0.124E+00)
 search vector abs. value=  0.669E+01
 bond charge predicted
 wavefunctions rotated
       N       E                     dE             d eps       ncg     rms          ort
 gam= 0.000 g(H,U,f)=  0.163E+01 0.266E-01 0.264E-14 ort(H,U,f) = 0.000E+00 0.000E+00 0.000E+00
SDA:   1    -0.591174968480E+03    0.65322E+00    0.00000E+00  1200   0.165E+01 0.000E+00
 gam= 0.000 trial= 0.690  step= 0.680 mean= 0.690
 gam= 0.311 g(H,U,f)=  0.493E+00 0.210E-01 0.455E-14 ort(H,U,f) = 0.219E-01-0.224E-01-0.718E-14
CGA:   2    -0.591737348877E+03   -0.56238E+00   -0.56238E+00  1200   0.514E+00-0.477E-03
 gam= 0.311 trial= 0.690  step= 0.535 mean= 0.690
 gam= 0.167 g(H,U,f)=  0.844E-01 0.147E-02 0.140E-14 ort(H,U,f) =-0.967E-03 0.105E-02 0.123E-14
CGA:   3    -0.591874751931E+03   -0.13740E+00   -0.13744E+00  1200   0.858E-01 0.782E-04
 gam= 0.167 trial= 0.682  step= 0.504 mean= 0.682
 gam= 0.217 g(H,U,f)=  0.177E-01 0.901E-03 0.119E-15 ort(H,U,f) =-0.103E-02 0.103E-02 0.368E-15
CGA:   4    -0.591896405020E+03   -0.21653E-01   -0.21650E-01  1200   0.186E-01-0.267E-05
 gam= 0.217 trial= 0.673  step= 0.574 mean= 0.673
 gam= 0.259 g(H,U,f)=  0.439E-02 0.432E-03 0.141E-15 ort(H,U,f) =-0.744E-03 0.751E-03 0.193E-15
CGA:   5    -0.591901751716E+03   -0.53467E-02   -0.53471E-02  1200   0.482E-02 0.679E-05
 gam= 0.259 trial= 0.668  step= 0.683 mean= 0.668
 gam= 0.346 g(H,U,f)=  0.158E-02 0.832E-04 0.299E-16 ort(H,U,f) =-0.237E-03 0.237E-03 0.788E-16
CGA:   6    -0.591903399436E+03   -0.16477E-02   -0.16477E-02  1200   0.167E-02-0.234E-06
 gam= 0.346 trial= 0.669  step= 0.707 mean= 0.669
 gam= 0.314 g(H,U,f)=  0.495E-03 0.285E-04 0.512E-18 ort(H,U,f) =-0.888E-04 0.843E-04 0.684E-17
CGA:   7    -0.591903988649E+03   -0.58921E-03   -0.58930E-03  1200   0.524E-03-0.454E-05
 gam= 0.314 trial= 0.671  step= 0.701 mean= 0.671
 gam= 0.245 g(H,U,f)=  0.126E-03 0.214E-05 0.101E-18 ort(H,U,f) =-0.836E-05 0.882E-05 0.115E-17
CGA:   8    -0.591904171854E+03   -0.18320E-03   -0.18320E-03  1200   0.128E-03 0.465E-06
 gam= 0.245 trial= 0.672  step= 0.694 mean= 0.672
 gam= 0.215 g(H,U,f)=  0.273E-04 0.285E-06 0.150E-19 ort(H,U,f) = 0.842E-06 0.912E-06-0.148E-18
CGA:   9    -0.591904216443E+03   -0.44589E-04   -0.44569E-04  1200   0.275E-04 0.175E-05
 gam= 0.215 trial= 0.673  step= 0.753 mean= 0.673
 gam= 0.262 g(H,U,f)=  0.707E-05 0.128E-06 0.338E-19 ort(H,U,f) =-0.397E-06-0.126E-07-0.257E-19
CGA:  10    -0.591904226932E+03   -0.10489E-04   -0.10505E-04  1200   0.720E-05-0.410E-06
 gam= 0.262 trial= 0.677  step= 0.807 mean= 0.677
 gam= 0.297 g(H,U,f)=  0.207E-05 0.651E-07 0.132E-19 ort(H,U,f) =-0.201E-06-0.598E-08 0.174E-19
CGA:  11    -0.591904229779E+03   -0.28473E-05   -0.28610E-05  1200   0.214E-05-0.207E-06
 gam= 0.297 trial= 0.684  step= 0.729 mean= 0.684
 final diagonalization
  22 F= -.59190423E+03 E0= -.59190423E+03  d E =-.760380E-01
 ZBRENT: can't locate minimum, use default step
 trial-energy change:   -0.076038  1 .order   -0.076059   -0.085404   -0.066714
 step:   0.4975(harm=  0.5683)  dis= 0.07815  next Energy=  -592.023314 (dE=-0.195E+00)
 bond charge predicted
 wavefunctions rotated
       N       E                     dE             d eps       ncg     rms          ort
 gam= 0.000 g(H,U,f)=  0.146E+02 0.233E+00 0.277E-14 ort(H,U,f) = 0.000E+00 0.000E+00 0.000E+00
SDA:   1    -0.585488797676E+03    0.64154E+01    0.00000E+00  1200   0.149E+02 0.000E+00
 gam= 0.000 trial= 0.686  step= 0.676 mean= 0.686
 gam= 0.314 g(H,U,f)=  0.447E+01 0.199E+00 0.104E-13 ort(H,U,f) = 0.183E+00-0.198E+00-0.124E-13
CGA:   2    -0.590510933517E+03   -0.50221E+01   -0.50220E+01  1200   0.467E+01-0.152E-01
 gam= 0.314 trial= 0.686  step= 0.530 mean= 0.686
 gam= 0.169 g(H,U,f)=  0.774E+00 0.149E-01 0.257E-15 ort(H,U,f) =-0.674E-02 0.135E-01 0.133E-14
CGA:   3    -0.591745579413E+03   -0.12346E+01   -0.12365E+01  1200   0.789E+00 0.675E-02
 gam= 0.169 trial= 0.678  step= 0.508 mean= 0.678
 gam= 0.218 g(H,U,f)=  0.163E+00 0.917E-02 0.260E-17 ort(H,U,f) =-0.114E-01 0.113E-01 0.177E-16
CGA:   4    -0.591946203718E+03   -0.20062E+00   -0.20054E+00  1200   0.172E+00-0.134E-03
 gam= 0.218 trial= 0.669  step= 0.580 mean= 0.669
 gam= 0.265 g(H,U,f)=  0.411E-01 0.437E-02 0.205E-16 ort(H,U,f) =-0.773E-02 0.775E-02 0.121E-16
CGA:   5    -0.591996008225E+03   -0.49805E-01   -0.49807E-01  1200   0.455E-01 0.204E-04
 gam= 0.265 trial= 0.665  step= 0.687 mean= 0.665
 gam= 0.355 g(H,U,f)=  0.153E-01 0.870E-03 0.832E-15 ort(H,U,f) =-0.249E-02 0.250E-02 0.205E-14
CGA:   6    -0.592011629416E+03   -0.15621E-01   -0.15621E-01  1200   0.161E-01 0.158E-04
 gam= 0.355 trial= 0.666  step= 0.706 mean= 0.666
 gam= 0.311 g(H,U,f)=  0.474E-02 0.266E-03 0.104E-16 ort(H,U,f) =-0.872E-03 0.861E-03 0.122E-15
CGA:   7    -0.592017322402E+03   -0.56930E-02   -0.56932E-02  1200   0.501E-02-0.115E-04
 gam= 0.311 trial= 0.668  step= 0.702 mean= 0.668
 gam= 0.244 g(H,U,f)=  0.120E-02 0.223E-04 0.310E-17 ort(H,U,f) =-0.900E-04 0.920E-04 0.237E-16
CGA:   8    -0.592019078952E+03   -0.17566E-02   -0.17565E-02  1200   0.122E-02 0.202E-05
 gam= 0.244 trial= 0.670  step= 0.698 mean= 0.670
 gam= 0.216 g(H,U,f)=  0.261E-03 0.336E-05 0.117E-19 ort(H,U,f) =-0.407E-05 0.951E-05-0.506E-18
CGA:   9    -0.592019505518E+03   -0.42657E-03   -0.42649E-03  1200   0.264E-03 0.544E-05
 gam= 0.216 trial= 0.671  step= 0.737 mean= 0.671
 gam= 0.252 g(H,U,f)=  0.651E-04 0.150E-05 0.191E-18 ort(H,U,f) =-0.159E-05 0.121E-06-0.426E-18
CGA:  10    -0.592019603361E+03   -0.97843E-04   -0.97892E-04  1200   0.666E-04-0.146E-05
 gam= 0.252 trial= 0.674  step= 0.797 mean= 0.674
 gam= 0.296 g(H,U,f)=  0.191E-04 0.654E-06 0.694E-19 ort(H,U,f) =-0.103E-05 0.144E-06 0.534E-19
CGA:  11    -0.592019629719E+03   -0.26359E-04   -0.26413E-04  1200   0.197E-04-0.887E-06
 gam= 0.296 trial= 0.681  step= 0.784 mean= 0.681
 gam= 0.273 g(H,U,f)=  0.521E-05 0.180E-06 0.133E-18 ort(H,U,f) = 0.310E-06 0.131E-06 0.123E-18
CGA:  12    -0.592019637368E+03   -0.76491E-05   -0.76261E-05  1200   0.539E-05 0.441E-06
 gam= 0.273 trial= 0.686  step= 0.825 mean= 0.686
 gam= 0.310 g(H,U,f)=  0.158E-05 0.889E-07 0.245E-20 ort(H,U,f) = 0.135E-07 0.594E-07 0.237E-19
CGA:  13    -0.592019639645E+03   -0.22770E-05   -0.22718E-05  1200   0.167E-05 0.728E-07
 gam= 0.310 trial= 0.693  step= 0.887 mean= 0.693
 final diagonalization
  23 F= -.59201964E+03 E0= -.59201964E+03  d E =-.191448E+00
 curvature:  -2.70 expect dE=-0.948E+00 dE for cont linesearch -0.274E-02
 ZBRENT: extrapolating
 opt :   0.5653  next Energy=  -592.022435 (dE=-0.194E+00)
 bond charge predicted
 wavefunctions rotated
       N       E                     dE             d eps       ncg     rms          ort
 gam= 0.000 g(H,U,f)=  0.484E+00 0.808E-02 0.192E-14 ort(H,U,f) = 0.000E+00 0.000E+00 0.000E+00
SDA:   1    -0.591805980388E+03    0.21366E+00    0.00000E+00  1200   0.492E+00 0.000E+00
 gam= 0.000 trial= 0.702  step= 0.678 mean= 0.702
 gam= 0.311 g(H,U,f)=  0.147E+00 0.631E-02 0.185E-14 ort(H,U,f) = 0.675E-02-0.680E-02-0.277E-14
CGA:   2    -0.591972772811E+03   -0.16679E+00   -0.16679E+00  1200   0.153E+00-0.472E-04
 gam= 0.311 trial= 0.701  step= 0.535 mean= 0.701
 gam= 0.166 g(H,U,f)=  0.250E-01 0.439E-03 0.359E-15 ort(H,U,f) =-0.292E-03 0.281E-03 0.418E-15
CGA:   3    -0.592013710967E+03   -0.40938E-01   -0.40942E-01  1200   0.254E-01-0.116E-04
 gam= 0.166 trial= 0.693  step= 0.504 mean= 0.693
 gam= 0.214 g(H,U,f)=  0.518E-02 0.261E-03 0.364E-16 ort(H,U,f) =-0.290E-03 0.292E-03 0.122E-15
CGA:   4    -0.592020117031E+03   -0.64061E-02   -0.64058E-02  1200   0.544E-02 0.251E-05
 gam= 0.214 trial= 0.683  step= 0.575 mean= 0.683
 gam= 0.255 g(H,U,f)=  0.126E-02 0.125E-03 0.595E-16 ort(H,U,f) =-0.213E-03 0.216E-03 0.764E-16
CGA:   5    -0.592021682405E+03   -0.15654E-02   -0.15656E-02  1200   0.139E-02 0.328E-05
 gam= 0.255 trial= 0.678  step= 0.686 mean= 0.678
 gam= 0.347 g(H,U,f)=  0.457E-03 0.240E-04 0.121E-16 ort(H,U,f) =-0.680E-04 0.677E-04 0.342E-16
CGA:   6    -0.592022158468E+03   -0.47606E-03   -0.47606E-03  1200   0.481E-03-0.313E-06
 gam= 0.347 trial= 0.678  step= 0.710 mean= 0.678
 gam= 0.318 g(H,U,f)=  0.144E-03 0.845E-05 0.210E-18 ort(H,U,f) =-0.266E-04 0.244E-04 0.309E-17
CGA:   7    -0.592022329143E+03   -0.17067E-03   -0.17071E-03  1200   0.153E-03-0.222E-05
 gam= 0.318 trial= 0.680  step= 0.703 mean= 0.680
 gam= 0.245 g(H,U,f)=  0.368E-04 0.610E-06 0.636E-19 ort(H,U,f) =-0.224E-05 0.240E-05 0.661E-18
CGA:   8    -0.592022382617E+03   -0.53475E-04   -0.53473E-04  1200   0.374E-04 0.158E-06
 gam= 0.245 trial= 0.681  step= 0.690 mean= 0.681
 gam= 0.211 g(H,U,f)=  0.784E-05 0.806E-07 0.137E-19 ort(H,U,f) = 0.583E-06 0.249E-06-0.107E-18
CGA:   9    -0.592022395546E+03   -0.12929E-04   -0.12926E-04  1200   0.792E-05 0.832E-06
 gam= 0.211 trial= 0.682  step= 0.767 mean= 0.682
 gam= 0.272 g(H,U,f)=  0.211E-05 0.401E-07 0.161E-19 ort(H,U,f) =-0.205E-06-0.738E-08-0.101E-19
CGA:  10    -0.592022398642E+03   -0.30954E-05   -0.31041E-05  1200   0.215E-05-0.212E-06
 gam= 0.272 trial= 0.686  step= 0.815 mean= 0.686
 final diagonalization
  24 F= -.59202240E+03 E0= -.59202240E+03  d E =-.194207E+00
[...]
CGA:   8    -0.593656289536E+03   -0.69704E-05   -0.69693E-05  1200   0.499E-05 0.285E-07
 gam= 0.259 trial= 0.648  step= 0.719 mean= 0.648
 gam= 0.226 g(H,U,f)=  0.110E-05 0.236E-07 0.275E-22 ort(H,U,f) =-0.218E-07 0.912E-07-0.571E-22
CGA:   9    -0.593656291336E+03   -0.18000E-05   -0.17976E-05  1200   0.113E-05 0.695E-07
 gam= 0.226 trial= 0.651  step= 0.780 mean= 0.651
 final diagonalization
 613 F= -.59365629E+03 E0= -.59365629E+03  d E =-.112938E-02
 curvature: -16.42 expect dE=-0.768E-01 dE for cont linesearch -0.420E-06
 trial: gam= 0.86092 g(F)=  0.468E-02 g(S)=  0.000E+00 ort =-0.868E-04 (trialstep = 0.350E+00)
 search vector abs. value=  0.223E+00
 bond charge predicted
 wavefunctions rotated
       N       E                     dE             d eps       ncg     rms          ort
 gam= 0.000 g(H,U,f)=  0.300E+00 0.275E-02 0.494E-18 ort(H,U,f) = 0.000E+00 0.000E+00 0.000E+00
SDA:   1    -0.593527703233E+03    0.12859E+00    0.00000E+00  1200   0.303E+00 0.000E+00
 gam= 0.000 trial= 0.658  step= 0.682 mean= 0.658
 gam= 0.299 g(H,U,f)=  0.880E-01 0.253E-02 0.749E-18 ort(H,U,f) = 0.218E-02-0.221E-02-0.489E-18
CGA:   2    -0.593630915291E+03   -0.10321E+00   -0.10321E+00  1200   0.905E-01-0.359E-04
 gam= 0.299 trial= 0.659  step= 0.488 mean= 0.659
 gam= 0.153 g(H,U,f)=  0.134E-01 0.378E-03 0.468E-20 ort(H,U,f) = 0.159E-03-0.158E-03 0.707E-19
CGA:   3    -0.593653001063E+03   -0.22086E-01   -0.22087E-01  1200   0.138E-01 0.137E-05
 gam= 0.153 trial= 0.650  step= 0.508 mean= 0.650
 gam= 0.192 g(H,U,f)=  0.253E-02 0.121E-03 0.152E-19 ort(H,U,f) =-0.168E-03 0.166E-03 0.274E-19
CGA:   4    -0.593656512411E+03   -0.35113E-02   -0.35112E-02  1200   0.265E-02-0.198E-05
 gam= 0.192 trial= 0.643  step= 0.550 mean= 0.643
 gam= 0.211 g(H,U,f)=  0.498E-03 0.622E-04 0.112E-19 ort(H,U,f) =-0.101E-03 0.102E-03 0.178E-19
CGA:   5    -0.593657242252E+03   -0.72984E-03   -0.72987E-03  1200   0.560E-03 0.528E-06
 gam= 0.211 trial= 0.639  step= 0.646 mean= 0.639
 gam= 0.287 g(H,U,f)=  0.139E-03 0.224E-04 0.108E-20 ort(H,U,f) =-0.403E-04 0.408E-04-0.485E-20
CGA:   6    -0.593657423244E+03   -0.18099E-03   -0.18099E-03  1200   0.161E-03 0.538E-06
 gam= 0.287 trial= 0.639  step= 0.707 mean= 0.639
 gam= 0.316 g(H,U,f)=  0.455E-04 0.542E-05 0.127E-20 ort(H,U,f) =-0.127E-04 0.124E-04 0.339E-21
CGA:   7    -0.593657480169E+03   -0.56925E-04   -0.56935E-04  1200   0.509E-04-0.271E-06
 gam= 0.316 trial= 0.642  step= 0.725 mean= 0.642
 gam= 0.260 g(H,U,f)=  0.124E-04 0.805E-06 0.175E-21 ort(H,U,f) =-0.251E-05 0.272E-05 0.517E-21
CGA:   8    -0.593657498601E+03   -0.18432E-04   -0.18423E-04  1200   0.132E-04 0.209E-06
 gam= 0.260 trial= 0.647  step= 0.723 mean= 0.647
 gam= 0.228 g(H,U,f)=  0.295E-05 0.637E-07 0.134E-21 ort(H,U,f) =-0.117E-06 0.244E-06-0.274E-21
CGA:   9    -0.593657503406E+03   -0.48043E-05   -0.47994E-05  1200   0.301E-05 0.127E-06
 gam= 0.228 trial= 0.650  step= 0.768 mean= 0.650
 final diagonalization
 614 F= -.59365750E+03 E0= -.59365750E+03  d E =-.121207E-02
 trial-energy change:   -0.001212  1 .order   -0.001214   -0.001611   -0.000817
 step:   0.7108(harm=  0.7108)  dis= 0.03104  next Energy=  -593.657926 (dE=-0.164E-02)
 bond charge predicted
 wavefunctions rotated
       N       E                     dE             d eps       ncg     rms          ort
 gam= 0.000 g(H,U,f)=  0.318E+00 0.291E-02 0.421E-18 ort(H,U,f) = 0.000E+00 0.000E+00 0.000E+00
SDA:   1    -0.593520387378E+03    0.13711E+00    0.00000E+00  1200   0.321E+00 0.000E+00
 gam= 0.000 trial= 0.656  step= 0.682 mean= 0.656
 gam= 0.299 g(H,U,f)=  0.932E-01 0.269E-02 0.633E-18 ort(H,U,f) = 0.231E-02-0.235E-02-0.414E-18
CGA:   2    -0.593629746848E+03   -0.10936E+00   -0.10936E+00  1200   0.959E-01-0.426E-04
 gam= 0.299 trial= 0.658  step= 0.488 mean= 0.658
 gam= 0.153 g(H,U,f)=  0.142E-01 0.401E-03 0.290E-20 ort(H,U,f) = 0.169E-03-0.167E-03 0.515E-19
CGA:   3    -0.593653147769E+03   -0.23401E-01   -0.23402E-01  1200   0.146E-01 0.203E-05
 gam= 0.153 trial= 0.649  step= 0.508 mean= 0.649
 gam= 0.192 g(H,U,f)=  0.269E-02 0.129E-03 0.120E-19 ort(H,U,f) =-0.178E-03 0.176E-03 0.216E-19
CGA:   4    -0.593656868814E+03   -0.37210E-02   -0.37209E-02  1200   0.282E-02-0.205E-05
 gam= 0.192 trial= 0.642  step= 0.550 mean= 0.642
 gam= 0.211 g(H,U,f)=  0.529E-03 0.659E-04 0.959E-20 ort(H,U,f) =-0.107E-03 0.108E-03 0.146E-19
CGA:   5    -0.593657642866E+03   -0.77405E-03   -0.77407E-03  1200   0.595E-03 0.479E-06
 gam= 0.211 trial= 0.637  step= 0.646 mean= 0.637
 gam= 0.288 g(H,U,f)=  0.147E-03 0.238E-04 0.927E-21 ort(H,U,f) =-0.427E-04 0.433E-04-0.412E-20
CGA:   6    -0.593657835091E+03   -0.19223E-03   -0.19222E-03  1200   0.171E-03 0.588E-06
 gam= 0.288 trial= 0.638  step= 0.707 mean= 0.638
 gam= 0.316 g(H,U,f)=  0.485E-04 0.573E-05 0.107E-20 ort(H,U,f) =-0.134E-04 0.132E-04 0.279E-21
CGA:   7    -0.593657895658E+03   -0.60567E-04   -0.60576E-04  1200   0.542E-04-0.252E-06
 gam= 0.316 trial= 0.641  step= 0.726 mean= 0.641
 gam= 0.260 g(H,U,f)=  0.132E-04 0.849E-06 0.158E-21 ort(H,U,f) =-0.266E-05 0.286E-05 0.452E-21
CGA:   8    -0.593657915297E+03   -0.19639E-04   -0.19631E-04  1200   0.141E-04 0.209E-06
 gam= 0.260 trial= 0.646  step= 0.723 mean= 0.646
 gam= 0.228 g(H,U,f)=  0.314E-05 0.667E-07 0.111E-21 ort(H,U,f) =-0.119E-06 0.254E-06-0.234E-21
CGA:   9    -0.593657920418E+03   -0.51207E-05   -0.51153E-05  1200   0.321E-05 0.134E-06
 gam= 0.228 trial= 0.649  step= 0.767 mean= 0.649
 gam= 0.249 g(H,U,f)=  0.786E-06 0.125E-07 0.169E-22 ort(H,U,f) =-0.648E-07-0.497E-08-0.227E-22
CGA:  10    -0.593657921657E+03   -0.12389E-05   -0.12426E-05  1200   0.798E-06-0.698E-07
 gam= 0.249 trial= 0.655  step= 0.789 mean= 0.655
 final diagonalization
 615 F= -.59365792E+03 E0= -.59365792E+03  d E =-.163032E-02
 curvature: -17.21 expect dE=-0.138E+00 dE for cont linesearch -0.304E-08
 trial: gam= 1.65181 g(F)=  0.801E-02 g(S)=  0.000E+00 ort =-0.628E-05 (trialstep = 0.153E+00)
 search vector abs. value=  0.616E+00
 bond charge predicted
 wavefunctions rotated
       N       E                     dE             d eps       ncg     rms          ort
 gam= 0.000 g(H,U,f)=  0.152E+00 0.157E-02 0.126E-18 ort(H,U,f) = 0.000E+00 0.000E+00 0.000E+00
SDA:   1    -0.593593499162E+03    0.64421E-01    0.00000E+00  1200   0.153E+00 0.000E+00
 gam= 0.000 trial= 0.662  step= 0.679 mean= 0.662
 gam= 0.302 g(H,U,f)=  0.448E-01 0.143E-02 0.308E-18 ort(H,U,f) = 0.127E-02-0.128E-02-0.178E-18
CGA:   2    -0.593645458403E+03   -0.51959E-01   -0.51959E-01  1200   0.462E-01-0.671E-05
 gam= 0.302 trial= 0.663  step= 0.487 mean= 0.663
 gam= 0.152 g(H,U,f)=  0.684E-02 0.189E-03 0.931E-20 ort(H,U,f) = 0.696E-04-0.700E-04 0.564E-19
CGA:   3    -0.593656718256E+03   -0.11260E-01   -0.11260E-01  1200   0.703E-02-0.420E-06
 gam= 0.152 trial= 0.654  step= 0.509 mean= 0.654
 gam= 0.193 g(H,U,f)=  0.130E-02 0.635E-04 0.780E-20 ort(H,U,f) =-0.884E-04 0.869E-04 0.160E-19
CGA:   4    -0.593658507447E+03   -0.17892E-02   -0.17891E-02  1200   0.136E-02-0.148E-05
 gam= 0.193 trial= 0.647  step= 0.551 mean= 0.647
 gam= 0.211 g(H,U,f)=  0.254E-03 0.331E-04 0.575E-20 ort(H,U,f) =-0.527E-04 0.533E-04 0.942E-20
CGA:   5    -0.593658882069E+03   -0.37462E-03   -0.37465E-03  1200   0.287E-03 0.587E-06
 gam= 0.211 trial= 0.642  step= 0.648 mean= 0.642
 gam= 0.289 g(H,U,f)=  0.711E-04 0.118E-04 0.204E-21 ort(H,U,f) =-0.210E-04 0.212E-04-0.150E-20
CGA:   6    -0.593658975122E+03   -0.93053E-04   -0.93053E-04  1200   0.829E-04 0.162E-06
 gam= 0.289 trial= 0.642  step= 0.707 mean= 0.642
 gam= 0.315 g(H,U,f)=  0.232E-04 0.289E-05 0.508E-21 ort(H,U,f) =-0.692E-05 0.667E-05 0.359E-21
CGA:   7    -0.593659004433E+03   -0.29311E-04   -0.29319E-04  1200   0.261E-04-0.249E-06
 gam= 0.315 trial= 0.646  step= 0.719 mean= 0.646
 gam= 0.255 g(H,U,f)=  0.624E-05 0.410E-06 0.107E-21 ort(H,U,f) =-0.127E-05 0.148E-05 0.288E-21
CGA:   8    -0.593659013793E+03   -0.93598E-05   -0.93517E-05  1200   0.665E-05 0.215E-06
 gam= 0.255 trial= 0.649  step= 0.723 mean= 0.649
 gam= 0.227 g(H,U,f)=  0.147E-05 0.363E-07 0.594E-22 ort(H,U,f) =-0.766E-07 0.167E-06-0.136E-21
CGA:   9    -0.593659016219E+03   -0.24257E-05   -0.24224E-05  1200   0.151E-05 0.902E-07
 gam= 0.227 trial= 0.653  step= 0.773 mean= 0.653
 final diagonalization
 616 F= -.59365902E+03 E0= -.59365902E+03  d E =-.109456E-02
 ZBRENT: can't locate minimum, use default step
 trial-energy change:   -0.001095  1 .order   -0.001097   -0.001222   -0.000972
 step:   0.6111(harm=  0.7449)  dis= 0.04446  next Energy=  -593.660901 (dE=-0.298E-02)
 bond charge predicted
 wavefunctions rotated
       N       E                     dE             d eps       ncg     rms          ort
 gam= 0.000 g(H,U,f)=  0.136E+01 0.146E-01 0.653E-18 ort(H,U,f) = 0.000E+00 0.000E+00 0.000E+00
SDA:   1    -0.593071219374E+03    0.58779E+00    0.00000E+00  1200   0.138E+01 0.000E+00
 gam= 0.000 trial= 0.659  step= 0.679 mean= 0.659
 gam= 0.302 g(H,U,f)=  0.403E+00 0.128E-01 0.103E-17 ort(H,U,f) = 0.113E-01-0.115E-01-0.598E-18
CGA:   2    -0.593538861039E+03   -0.46764E+00   -0.46765E+00  1200   0.416E+00-0.158E-03
 gam= 0.302 trial= 0.660  step= 0.487 mean= 0.660
 gam= 0.152 g(H,U,f)=  0.616E-01 0.167E-02 0.386E-19 ort(H,U,f) = 0.746E-03-0.677E-03 0.353E-18
CGA:   3    -0.593640209828E+03   -0.10135E+00   -0.10136E+00  1200   0.632E-01 0.695E-04
 gam= 0.152 trial= 0.651  step= 0.509 mean= 0.651
 gam= 0.193 g(H,U,f)=  0.116E-01 0.556E-03 0.384E-19 ort(H,U,f) =-0.754E-03 0.755E-03 0.858E-19
CGA:   4    -0.593656288215E+03   -0.16078E-01   -0.16079E-01  1200   0.122E-01 0.178E-05
 gam= 0.193 trial= 0.644  step= 0.550 mean= 0.644
 gam= 0.211 g(H,U,f)=  0.228E-02 0.292E-03 0.358E-19 ort(H,U,f) =-0.463E-03 0.466E-03 0.541E-19
CGA:   5    -0.593659644591E+03   -0.33564E-02   -0.33565E-02  1200   0.257E-02 0.250E-05
 gam= 0.211 trial= 0.639  step= 0.646 mean= 0.639
 gam= 0.287 g(H,U,f)=  0.632E-03 0.105E-03 0.244E-20 ort(H,U,f) =-0.186E-03 0.187E-03-0.134E-19
CGA:   6    -0.593660474406E+03   -0.82981E-03   -0.82981E-03  1200   0.737E-03 0.135E-05
 gam= 0.287 trial= 0.640  step= 0.704 mean= 0.640
 gam= 0.313 g(H,U,f)=  0.204E-03 0.261E-04 0.288E-20 ort(H,U,f) =-0.602E-04 0.599E-04 0.148E-20
CGA:   7    -0.593660733947E+03   -0.25954E-03   -0.25955E-03  1200   0.231E-03-0.229E-06
 gam= 0.313 trial= 0.643  step= 0.726 mean= 0.643
 gam= 0.260 g(H,U,f)=  0.560E-04 0.383E-05 0.800E-21 ort(H,U,f) =-0.129E-04 0.136E-04 0.180E-20
CGA:   8    -0.593660817636E+03   -0.83688E-04   -0.83659E-04  1200   0.598E-04 0.710E-06
 gam= 0.260 trial= 0.647  step= 0.727 mean= 0.647
 gam= 0.227 g(H,U,f)=  0.132E-04 0.349E-06 0.504E-21 ort(H,U,f) =-0.126E-05 0.157E-05-0.103E-20
CGA:   9    -0.593660839450E+03   -0.21814E-04   -0.21802E-04  1200   0.136E-04 0.309E-06
 gam= 0.227 trial= 0.651  step= 0.758 mean= 0.651
 gam= 0.240 g(H,U,f)=  0.320E-05 0.555E-07 0.703E-22 ort(H,U,f) =-0.119E-06 0.288E-07-0.102E-21
CGA:  10    -0.593660844620E+03   -0.51695E-05   -0.51746E-05  1200   0.326E-05-0.899E-07
 gam= 0.240 trial= 0.656  step= 0.784 mean= 0.656
 gam= 0.243 g(H,U,f)=  0.771E-06 0.220E-07 0.125E-22 ort(H,U,f) = 0.242E-07-0.980E-08-0.199E-22
CGA:  11    -0.593660845889E+03   -0.12699E-05   -0.12693E-05  1200   0.793E-06 0.144E-07
 gam= 0.243 trial= 0.663  step= 0.776 mean= 0.663
 final diagonalization
 617 F= -.59366085E+03 E0= -.59366085E+03  d E =-.292423E-02
 curvature: -27.20 expect dE=-0.157E+00 dE for cont linesearch -0.121E-03
 ZBRENT: extrapolating
 opt :   0.7726  next Energy=  -593.660980 (dE=-0.306E-02)
 bond charge predicted
 wavefunctions rotated
       N       E                     dE             d eps       ncg     rms          ort
 gam= 0.000 g(H,U,f)=  0.169E+00 0.175E-02 0.142E-18 ort(H,U,f) = 0.000E+00 0.000E+00 0.000E+00
SDA:   1    -0.593588015675E+03    0.72829E-01    0.00000E+00  1200   0.170E+00 0.000E+00
 gam= 0.000 trial= 0.669  step= 0.680 mean= 0.669
 gam= 0.302 g(H,U,f)=  0.498E-01 0.162E-02 0.369E-18 ort(H,U,f) = 0.143E-02-0.144E-02-0.209E-18
CGA:   2    -0.593645902305E+03   -0.57887E-01   -0.57887E-01  1200   0.514E-01-0.964E-05
 gam= 0.302 trial= 0.669  step= 0.487 mean= 0.669
 gam= 0.152 g(H,U,f)=  0.761E-02 0.211E-03 0.421E-20 ort(H,U,f) = 0.804E-04-0.808E-04 0.411E-19
CGA:   3    -0.593658426114E+03   -0.12524E-01   -0.12524E-01  1200   0.782E-02-0.392E-06
 gam= 0.152 trial= 0.660  step= 0.509 mean= 0.660
 gam= 0.194 g(H,U,f)=  0.144E-02 0.707E-04 0.585E-20 ort(H,U,f) =-0.983E-04 0.968E-04 0.121E-19
CGA:   4    -0.593660416730E+03   -0.19906E-02   -0.19905E-02  1200   0.151E-02-0.153E-05
 gam= 0.194 trial= 0.652  step= 0.551 mean= 0.652
 gam= 0.212 g(H,U,f)=  0.284E-03 0.369E-04 0.658E-20 ort(H,U,f) =-0.590E-04 0.594E-04 0.874E-20
CGA:   5    -0.593660834072E+03   -0.41734E-03   -0.41737E-03  1200   0.321E-03 0.459E-06
 gam= 0.212 trial= 0.647  step= 0.647 mean= 0.647
 gam= 0.289 g(H,U,f)=  0.796E-04 0.132E-04 0.246E-21 ort(H,U,f) =-0.234E-04 0.236E-04-0.168E-20
CGA:   6    -0.593660937963E+03   -0.10389E-03   -0.10389E-03  1200   0.928E-04 0.195E-06
 gam= 0.289 trial= 0.647  step= 0.706 mean= 0.647
 gam= 0.315 g(H,U,f)=  0.260E-04 0.321E-05 0.476E-21 ort(H,U,f) =-0.764E-05 0.742E-05 0.331E-21
CGA:   7    -0.593660970773E+03   -0.32810E-04   -0.32816E-04  1200   0.292E-04-0.221E-06
 gam= 0.315 trial= 0.650  step= 0.721 mean= 0.650
 gam= 0.256 g(H,U,f)=  0.701E-05 0.454E-06 0.137E-21 ort(H,U,f) =-0.143E-05 0.164E-05 0.314E-21
CGA:   8    -0.593660981288E+03   -0.10515E-04   -0.10507E-04  1200   0.747E-05 0.206E-06
 gam= 0.256 trial= 0.654  step= 0.723 mean= 0.654
 gam= 0.227 g(H,U,f)=  0.165E-05 0.396E-07 0.612E-22 ort(H,U,f) =-0.916E-07 0.181E-06-0.147E-21
CGA:   9    -0.593660984010E+03   -0.27220E-05   -0.27193E-05  1200   0.169E-05 0.898E-07
 gam= 0.227 trial= 0.657  step= 0.770 mean= 0.657
 final diagonalization
 618 F= -.59366098E+03 E0= -.59366098E+03  d E =-.306235E-02
 curvature: -30.01 expect dE=-0.265E+00 dE for cont linesearch -0.883E-07
 trial: gam= 1.13122 g(F)=  0.884E-02 g(S)=  0.000E+00 ort = 0.426E-04 (trialstep = 0.214E+00)
 search vector abs. value=  0.797E+00
 bond charge predicted
 wavefunctions rotated
       N       E                     dE             d eps       ncg     rms          ort
 gam= 0.000 g(H,U,f)=  0.387E+00 0.372E-02 0.559E-18 ort(H,U,f) = 0.000E+00 0.000E+00 0.000E+00
SDA:   1    -0.593495071310E+03    0.16591E+00    0.00000E+00  1200   0.391E+00 0.000E+00
 gam= 0.000 trial= 0.663  step= 0.679 mean= 0.663
 gam= 0.300 g(H,U,f)=  0.114E+00 0.349E-02 0.679E-18 ort(H,U,f) = 0.301E-02-0.306E-02-0.511E-18
CGA:   2    -0.593627725886E+03   -0.13265E+00   -0.13266E+00  1200   0.117E+00-0.473E-04
 gam= 0.300 trial= 0.664  step= 0.489 mean= 0.664
 gam= 0.152 g(H,U,f)=  0.173E-01 0.516E-03 0.937E-21 ort(H,U,f) = 0.189E-03-0.182E-03 0.286E-19
CGA:   3    -0.593656384983E+03   -0.28659E-01   -0.28661E-01  1200   0.178E-01 0.724E-05
 gam= 0.152 trial= 0.655  step= 0.509 mean= 0.655
 gam= 0.195 g(H,U,f)=  0.332E-02 0.159E-03 0.756E-20 ort(H,U,f) =-0.229E-03 0.227E-03 0.146E-19
CGA:   4    -0.593660917647E+03   -0.45327E-02   -0.45325E-02  1200   0.348E-02-0.190E-05
 gam= 0.195 trial= 0.648  step= 0.550 mean= 0.648
 gam= 0.212 g(H,U,f)=  0.655E-03 0.836E-04 0.990E-20 ort(H,U,f) =-0.135E-03 0.136E-03 0.120E-19
CGA:   5    -0.593661874616E+03   -0.95697E-03   -0.95701E-03  1200   0.739E-03 0.812E-06
 gam= 0.212 trial= 0.643  step= 0.649 mean= 0.643
 gam= 0.291 g(H,U,f)=  0.184E-03 0.308E-04 0.907E-21 ort(H,U,f) =-0.547E-04 0.553E-04-0.391E-20
CGA:   6    -0.593662114313E+03   -0.23970E-03   -0.23970E-03  1200   0.215E-03 0.619E-06
 gam= 0.291 trial= 0.643  step= 0.707 mean= 0.643
 gam= 0.317 g(H,U,f)=  0.612E-04 0.696E-05 0.956E-21 ort(H,U,f) =-0.168E-04 0.165E-04 0.235E-21
CGA:   7    -0.593662190390E+03   -0.76076E-04   -0.76085E-04  1200   0.681E-04-0.286E-06
 gam= 0.317 trial= 0.646  step= 0.722 mean= 0.646
 gam= 0.257 g(H,U,f)=  0.164E-04 0.107E-05 0.203E-21 ort(H,U,f) =-0.343E-05 0.374E-05 0.479E-21
CGA:   8    -0.593662214983E+03   -0.24593E-04   -0.24582E-04  1200   0.175E-04 0.310E-06
 gam= 0.257 trial= 0.650  step= 0.723 mean= 0.650
 gam= 0.226 g(H,U,f)=  0.387E-05 0.877E-07 0.103E-21 ort(H,U,f) =-0.197E-06 0.349E-06-0.234E-21
CGA:   9    -0.593662221344E+03   -0.63610E-05   -0.63552E-05  1200   0.396E-05 0.152E-06
 gam= 0.226 trial= 0.654  step= 0.761 mean= 0.654
 gam= 0.245 g(H,U,f)=  0.953E-06 0.168E-07 0.198E-22 ort(H,U,f) =-0.692E-07 0.108E-08-0.219E-22
CGA:  10    -0.593662222859E+03   -0.15153E-05   -0.15189E-05  1200   0.970E-06-0.681E-07
 gam= 0.245 trial= 0.659  step= 0.773 mean= 0.659
 final diagonalization
 619 F= -.59366222E+03 E0= -.59366222E+03  d E =-.123885E-02
 trial-energy change:   -0.001239  1 .order   -0.001239   -0.001901   -0.000578
 step:   0.3073(harm=  0.3073)  dis= 0.02541  next Energy=  -593.662350 (dE=-0.137E-02)
 bond charge predicted
 wavefunctions rotated
       N       E                     dE             d eps       ncg     rms          ort
 gam= 0.000 g(H,U,f)=  0.739E-01 0.701E-03 0.109E-18 ort(H,U,f) = 0.000E+00 0.000E+00 0.000E+00
SDA:   1    -0.593630430167E+03    0.31791E-01    0.00000E+00  1200   0.746E-01 0.000E+00
 gam= 0.000 trial= 0.665  step= 0.679 mean= 0.665
 gam= 0.300 g(H,U,f)=  0.217E-01 0.667E-03 0.172E-18 ort(H,U,f) = 0.581E-03-0.586E-03-0.127E-18
CGA:   2    -0.593655762423E+03   -0.25332E-01   -0.25332E-01  1200   0.224E-01-0.532E-05
 gam= 0.300 trial= 0.666  step= 0.489 mean= 0.666
 gam= 0.152 g(H,U,f)=  0.330E-02 0.100E-03 0.224E-21 ort(H,U,f) = 0.322E-04-0.332E-04 0.568E-20
CGA:   3    -0.593661231908E+03   -0.54695E-02   -0.54694E-02  1200   0.340E-02-0.936E-06
 gam= 0.152 trial= 0.657  step= 0.509 mean= 0.657
 gam= 0.196 g(H,U,f)=  0.635E-03 0.309E-04 0.157E-20 ort(H,U,f) =-0.455E-04 0.445E-04 0.286E-20
CGA:   4    -0.593662098668E+03   -0.86676E-03   -0.86668E-03  1200   0.666E-03-0.107E-05
 gam= 0.196 trial= 0.649  step= 0.551 mean= 0.649
 gam= 0.212 g(H,U,f)=  0.125E-03 0.162E-04 0.206E-20 ort(H,U,f) =-0.262E-04 0.266E-04 0.245E-20
CGA:   5    -0.593662281990E+03   -0.18332E-03   -0.18334E-03  1200   0.141E-03 0.319E-06
 gam= 0.212 trial= 0.644  step= 0.650 mean= 0.644
 gam= 0.293 g(H,U,f)=  0.354E-04 0.593E-05 0.143E-21 ort(H,U,f) =-0.105E-04 0.107E-04-0.691E-21
CGA:   6    -0.593662327933E+03   -0.45943E-04   -0.45943E-04  1200   0.413E-04 0.200E-06
 gam= 0.293 trial= 0.645  step= 0.710 mean= 0.645
 gam= 0.319 g(H,U,f)=  0.119E-04 0.133E-05 0.206E-21 ort(H,U,f) =-0.331E-05 0.314E-05 0.712E-22
CGA:   7    -0.593662342632E+03   -0.14698E-04   -0.14703E-04  1200   0.132E-04-0.162E-06
 gam= 0.319 trial= 0.648  step= 0.716 mean= 0.648
 gam= 0.253 g(H,U,f)=  0.314E-05 0.202E-06 0.404E-22 ort(H,U,f) =-0.584E-06 0.707E-06 0.102E-21
CGA:   8    -0.593662347348E+03   -0.47163E-05   -0.47121E-05  1200   0.335E-05 0.123E-06
 gam= 0.253 trial= 0.651  step= 0.718 mean= 0.651
 final diagonalization
 620 F= -.59366235E+03 E0= -.59366235E+03  d E =-.136334E-02
 curvature: -13.78 expect dE=-0.445E-01 dE for cont linesearch -0.870E-08
 trial: gam= 0.39560 g(F)=  0.323E-02 g(S)=  0.000E+00 ort = 0.224E-04 (trialstep = 0.233E+00)
 search vector abs. value=  0.128E+00
 bond charge predicted
 wavefunctions rotated
       N       E                     dE             d eps       ncg     rms          ort
 gam= 0.000 g(H,U,f)=  0.748E-01 0.758E-03 0.149E-18 ort(H,U,f) = 0.000E+00 0.000E+00 0.000E+00
SDA:   1    -0.593630975985E+03    0.31367E-01    0.00000E+00  1200   0.755E-01 0.000E+00
 gam= 0.000 trial= 0.655  step= 0.667 mean= 0.655
 gam= 0.300 g(H,U,f)=  0.220E-01 0.669E-03 0.278E-18 ort(H,U,f) = 0.597E-03-0.598E-03-0.184E-18
CGA:   2    -0.593656174921E+03   -0.25199E-01   -0.25199E-01  1200   0.227E-01-0.629E-06
 gam= 0.300 trial= 0.655  step= 0.493 mean= 0.655
srun: Job step aborted: Waiting up to 32 seconds for job step to finish.
slurmstepd: error: *** JOB 2317964 ON nid003449 CANCELLED AT 2022-09-14T18:07:24 DUE TO TIME LIMIT ***
slurmstepd: error: *** STEP 2317964.0 ON nid003449 CANCELLED AT 2022-09-14T18:07:24 DUE TO TIME LIMIT ***
