  24  24   0   0
  0.2060980E+02  0.8882100E-09  0.8882100E-09  0.6269800E-09  0.5000000E-15
   1.0000000000000000E-004
  CAR 
 tetra-FASnI3                            
      9.73119972    -22.19788787  301      1.76223161      1.00000000
    -22.198  0.0000E+00  0.0000E+00
    -22.091  0.0000E+00  0.0000E+00
    -21.985  0.0000E+00  0.0000E+00
    -21.879  0.0000E+00  0.0000E+00
    -21.772  0.0000E+00  0.0000E+00
    -21.666  0.0000E+00  0.0000E+00
    -21.559  0.0000E+00  0.0000E+00
    -21.453  0.0000E+00  0.0000E+00
    -21.346  0.0000E+00  0.0000E+00
    -21.240  0.0000E+00  0.0000E+00
    -21.134  0.0000E+00  0.0000E+00
    -21.027  0.2901E-16  0.3087E-17
    -20.921  0.1295E-07  0.1378E-08
    -20.814  0.9496E-03  0.1011E-03
    -20.708  0.3115E-01  0.3416E-02
    -20.601  0.5487E-02  0.4000E-02
    -20.495  0.9118E-06  0.4000E-02
    -20.389  0.2877E-13  0.4000E-02
    -20.282  0.0000E+00  0.4000E-02
    -20.176  0.0000E+00  0.4000E-02
    -20.069  0.0000E+00  0.4000E-02
    -19.963  0.0000E+00  0.4000E-02
    -19.856  0.0000E+00  0.4000E-02
    -19.750  0.0000E+00  0.4000E-02
    -19.644  0.0000E+00  0.4000E-02
    -19.537  0.0000E+00  0.4000E-02
    -19.431  0.0000E+00  0.4000E-02
    -19.324  0.0000E+00  0.4000E-02
    -19.218  0.0000E+00  0.4000E-02
    -19.111  0.0000E+00  0.4000E-02
    -19.005  0.0000E+00  0.4000E-02
    -18.899  0.0000E+00  0.4000E-02
    -18.792  0.0000E+00  0.4000E-02
    -18.686  0.1449E-17  0.4000E-02
    -18.579  0.1727E-08  0.4000E-02
    -18.473  0.3697E-03  0.4039E-02
    -18.366  0.2785E-01  0.7003E-02
    -18.260  0.9363E-02  0.8000E-02
    -18.154  0.4275E-05  0.8000E-02
    -18.047  0.4031E-12  0.8000E-02
    -17.941  0.0000E+00  0.8000E-02
    -17.834  0.0000E+00  0.8000E-02
    -17.728  0.0000E+00  0.8000E-02
    -17.621  0.0000E+00  0.8000E-02
    -17.515  0.0000E+00  0.8000E-02
    -17.409  0.0000E+00  0.8000E-02
    -17.302  0.0000E+00  0.8000E-02
    -17.196  0.0000E+00  0.8000E-02
    -17.089  0.0000E+00  0.8000E-02
    -16.983  0.0000E+00  0.8000E-02
    -16.876  0.0000E+00  0.8000E-02
    -16.770  0.0000E+00  0.8000E-02
    -16.664  0.0000E+00  0.8000E-02
    -16.557  0.0000E+00  0.8000E-02
    -16.451  0.0000E+00  0.8000E-02
    -16.344  0.0000E+00  0.8000E-02
    -16.238  0.0000E+00  0.8000E-02
    -16.131  0.0000E+00  0.8000E-02
    -16.025  0.0000E+00  0.8000E-02
    -15.919  0.0000E+00  0.8000E-02
    -15.812  0.0000E+00  0.8000E-02
    -15.706  0.0000E+00  0.8000E-02
    -15.599  0.0000E+00  0.8000E-02
    -15.493  0.0000E+00  0.8000E-02
    -15.386  0.0000E+00  0.8000E-02
    -15.280  0.0000E+00  0.8000E-02
    -15.173  0.0000E+00  0.8000E-02
    -15.067  0.0000E+00  0.8000E-02
    -14.961  0.0000E+00  0.8000E-02
    -14.854  0.0000E+00  0.8000E-02
    -14.748  0.0000E+00  0.8000E-02
    -14.641  0.0000E+00  0.8000E-02
    -14.535  0.0000E+00  0.8000E-02
    -14.428  0.0000E+00  0.8000E-02
    -14.322  0.0000E+00  0.8000E-02
    -14.216  0.0000E+00  0.8000E-02
    -14.109  0.0000E+00  0.8000E-02
    -14.003  0.0000E+00  0.8000E-02
    -13.896  0.0000E+00  0.8000E-02
    -13.790  0.0000E+00  0.8000E-02
    -13.683  0.0000E+00  0.8000E-02
    -13.577  0.0000E+00  0.8000E-02
    -13.471  0.0000E+00  0.8000E-02
    -13.364  0.0000E+00  0.8000E-02
    -13.258  0.0000E+00  0.8000E-02
    -13.151  0.0000E+00  0.8000E-02
    -13.045  0.0000E+00  0.8000E-02
    -12.938  0.0000E+00  0.8000E-02
    -12.832  0.0000E+00  0.8000E-02
    -12.726  0.0000E+00  0.8000E-02
    -12.619  0.0000E+00  0.8000E-02
    -12.513  0.0000E+00  0.8000E-02
    -12.406  0.0000E+00  0.8000E-02
    -12.300  0.0000E+00  0.8000E-02
    -12.193  0.1997E-11  0.8000E-02
    -12.087  0.5151E-05  0.8001E-02
    -11.981  0.6896E-02  0.8734E-02
    -11.874  0.2955E-01  0.1188E-01
    -11.768  0.1127E-02  0.1200E-01
    -11.661  0.2909E-05  0.1200E-01
    -11.555  0.1520E-02  0.1216E-01
    -11.448  0.1370E-01  0.1362E-01
    -11.342  0.1833E-01  0.1557E-01
    -11.236  0.4560E-02  0.1606E-01
    -11.129  0.2439E-01  0.1865E-01
    -11.023  0.3868E-01  0.2277E-01
    -10.916  0.1150E-01  0.2399E-01
    -10.810  0.6859E-04  0.2400E-01
    -10.703  0.5624E-09  0.2400E-01
    -10.597  0.1043E-17  0.2400E-01
    -10.491  0.0000E+00  0.2400E-01
    -10.384  0.0000E+00  0.2400E-01
    -10.278  0.0000E+00  0.2400E-01
    -10.171  0.0000E+00  0.2400E-01
    -10.065  0.9367E-13  0.2400E-01
     -9.958  0.1069E-05  0.2400E-01
     -9.852  0.4692E-02  0.2450E-01
     -9.746  0.3140E-01  0.2784E-01
     -9.639  0.1488E-02  0.2800E-01
     -9.533  0.4955E-07  0.2800E-01
     -9.426  0.3404E-15  0.2800E-01
     -9.320  0.3662E-12  0.2800E-01
     -9.213  0.3609E-05  0.2800E-01
     -9.107  0.8369E-02  0.2889E-01
     -9.001  0.2867E-01  0.3194E-01
     -8.894  0.5384E-03  0.3200E-01
     -8.788  0.5351E-08  0.3200E-01
     -8.681  0.1101E-16  0.3200E-01
     -8.575  0.0000E+00  0.3200E-01
     -8.468  0.0000E+00  0.3200E-01
     -8.362  0.0000E+00  0.3200E-01
     -8.256  0.0000E+00  0.3200E-01
     -8.149  0.0000E+00  0.3200E-01
     -8.043  0.0000E+00  0.3200E-01
     -7.936  0.0000E+00  0.3200E-01
     -7.830  0.0000E+00  0.3200E-01
     -7.723  0.0000E+00  0.3200E-01
     -7.617  0.0000E+00  0.3200E-01
     -7.511  0.1318E-09  0.3200E-01
     -7.404  0.9384E-04  0.3201E-01
     -7.298  0.2120E-01  0.3427E-01
     -7.191  0.1626E-01  0.3600E-01
     -7.085  0.3245E-04  0.3600E-01
     -6.978  0.2057E-10  0.3600E-01
     -6.872  0.0000E+00  0.3600E-01
     -6.765  0.0000E+00  0.3600E-01
     -6.659  0.0000E+00  0.3600E-01
     -6.553  0.2083E-10  0.3600E-01
     -6.446  0.4805E-05  0.3600E-01
     -6.340  0.3831E-03  0.3604E-01
     -6.233  0.1758E-03  0.3606E-01
     -6.127  0.1800E-02  0.3625E-01
     -6.020  0.1425E-02  0.3640E-01
     -5.914  0.5330E-02  0.3697E-01
     -5.808  0.3821E-02  0.3738E-01
     -5.701  0.3238E-01  0.4082E-01
     -5.595  0.1112E-01  0.4201E-01
     -5.488  0.4780E-02  0.4252E-01
     -5.382  0.4213E-02  0.4296E-01
     -5.275  0.4166E-02  0.4341E-01
     -5.169  0.2733E-01  0.4632E-01
     -5.063  0.1416E-01  0.4782E-01
     -4.956  0.7558E-03  0.4790E-01
     -4.850  0.3787E-03  0.4794E-01
     -4.743  0.2939E-03  0.4798E-01
     -4.637  0.2269E-03  0.4800E-01
     -4.530  0.3943E-06  0.4800E-01
     -4.424  0.1642E-12  0.4800E-01
     -4.318  0.0000E+00  0.4800E-01
     -4.211  0.0000E+00  0.4800E-01
     -4.105  0.0000E+00  0.4800E-01
     -3.998  0.0000E+00  0.4800E-01
     -3.892  0.0000E+00  0.4800E-01
     -3.785  0.0000E+00  0.4800E-01
     -3.679  0.0000E+00  0.4800E-01
     -3.573  0.0000E+00  0.4800E-01
     -3.466  0.0000E+00  0.4800E-01
     -3.360  0.0000E+00  0.4800E-01
     -3.253  0.0000E+00  0.4800E-01
     -3.147  0.0000E+00  0.4800E-01
     -3.040  0.0000E+00  0.4800E-01
     -2.934  0.0000E+00  0.4800E-01
     -2.828  0.3727E-10  0.4800E-01
     -2.721  0.9605E-05  0.4800E-01
     -2.615  0.1232E-02  0.4813E-01
     -2.508  0.7144E-02  0.4889E-01
     -2.402  0.8628E-02  0.4981E-01
     -2.295  0.5825E-02  0.5043E-01
     -2.189  0.8580E-02  0.5134E-01
     -2.083  0.9448E-02  0.5235E-01
     -1.976  0.4412E-02  0.5282E-01
     -1.870  0.1985E-01  0.5493E-01
     -1.763  0.1962E-01  0.5702E-01
     -1.657  0.1027E-01  0.5811E-01
     -1.550  0.7188E-02  0.5888E-01
     -1.444  0.9899E-02  0.5993E-01
     -1.338  0.1053E-01  0.6105E-01
     -1.231  0.1358E-01  0.6250E-01
     -1.125  0.9831E-02  0.6354E-01
     -1.018  0.1250E-01  0.6487E-01
     -0.912  0.1422E-01  0.6639E-01
     -0.805  0.1725E-01  0.6822E-01
     -0.699  0.1543E-01  0.6987E-01
     -0.593  0.2287E-01  0.7230E-01
     -0.486  0.1801E-01  0.7422E-01
     -0.380  0.1943E-01  0.7629E-01
     -0.273  0.2636E-01  0.7909E-01
     -0.167  0.2334E-01  0.8157E-01
     -0.060  0.1767E-01  0.8346E-01
      0.046  0.1219E-01  0.8475E-01
      0.152  0.5702E-02  0.8536E-01
      0.259  0.2787E-02  0.8566E-01
      0.365  0.4245E-02  0.8611E-01
      0.472  0.5042E-02  0.8665E-01
      0.578  0.5673E-02  0.8725E-01
      0.685  0.8603E-03  0.8734E-01
      0.791  0.1504E-02  0.8750E-01
      0.897  0.1264E-02  0.8764E-01
      1.004  0.1579E-02  0.8780E-01
      1.110  0.3580E-03  0.8784E-01
      1.217  0.9064E-03  0.8794E-01
      1.323  0.6385E-04  0.8794E-01
      1.430  0.3364E-05  0.8794E-01
      1.536  0.3618E-03  0.8798E-01
      1.642  0.1567E-03  0.8800E-01
      1.749  0.1070E-06  0.8800E-01
      1.855  0.1565E-13  0.8800E-01
      1.962  0.0000E+00  0.8800E-01
      2.068  0.0000E+00  0.8800E-01
      2.175  0.0000E+00  0.8800E-01
      2.281  0.0000E+00  0.8800E-01
      2.388  0.0000E+00  0.8800E-01
      2.494  0.4396E-16  0.8800E-01
      2.600  0.3373E-08  0.8800E-01
      2.707  0.4619E-04  0.8800E-01
      2.813  0.6186E-03  0.8807E-01
      2.920  0.1278E-02  0.8821E-01
      3.026  0.2585E-02  0.8848E-01
      3.133  0.2511E-02  0.8875E-01
      3.239  0.6657E-02  0.8946E-01
      3.345  0.2706E-02  0.8975E-01
      3.452  0.1906E-02  0.8995E-01
      3.558  0.3026E-02  0.9027E-01
      3.665  0.5847E-03  0.9033E-01
      3.771  0.4200E-02  0.9078E-01
      3.878  0.5231E-02  0.9134E-01
      3.984  0.6371E-02  0.9201E-01
      4.090  0.7185E-02  0.9278E-01
      4.197  0.9360E-02  0.9378E-01
      4.303  0.2161E-01  0.9608E-01
      4.410  0.1012E-01  0.9715E-01
      4.516  0.7477E-02  0.9795E-01
      4.623  0.5735E-02  0.9856E-01
      4.729  0.3646E-02  0.9895E-01
      4.835  0.4964E-03  0.9900E-01
      4.942  0.1034E-05  0.9900E-01
      5.048  0.4368E-05  0.9900E-01
      5.155  0.1526E-02  0.9916E-01
      5.261  0.5803E-02  0.9978E-01
      5.368  0.9410E-02  0.1008E+00
      5.474  0.1318E-01  0.1022E+00
      5.580  0.4832E-02  0.1027E+00
      5.687  0.1460E-02  0.1029E+00
      5.793  0.2494E-02  0.1031E+00
      5.900  0.4593E-02  0.1036E+00
      6.006  0.7116E-02  0.1044E+00
      6.113  0.9966E-02  0.1054E+00
      6.219  0.6400E-02  0.1061E+00
      6.325  0.9588E-02  0.1071E+00
      6.432  0.4380E-02  0.1076E+00
      6.538  0.7557E-02  0.1084E+00
      6.645  0.1155E-01  0.1096E+00
      6.751  0.1008E-01  0.1107E+00
      6.858  0.1023E-01  0.1118E+00
      6.964  0.1094E-01  0.1130E+00
      7.070  0.1270E-01  0.1143E+00
      7.177  0.9527E-02  0.1153E+00
      7.283  0.1058E-01  0.1164E+00
      7.390  0.1399E-01  0.1179E+00
      7.496  0.1367E-01  0.1194E+00
      7.603  0.1280E-01  0.1208E+00
      7.709  0.1509E-01  0.1224E+00
      7.815  0.1176E-01  0.1236E+00
      7.922  0.1001E-01  0.1247E+00
      8.028  0.1154E-01  0.1259E+00
      8.135  0.1039E-01  0.1270E+00
      8.241  0.5950E-02  0.1276E+00
      8.348  0.3324E-02  0.1280E+00
      8.454  0.4191E-04  0.1280E+00
      8.560  0.5009E-09  0.1280E+00
      8.667  0.1217E-17  0.1280E+00
      8.773  0.0000E+00  0.1280E+00
      8.880  0.0000E+00  0.1280E+00
      8.986  0.0000E+00  0.1280E+00
      9.093  0.0000E+00  0.1280E+00
      9.199  0.0000E+00  0.1280E+00
      9.305  0.0000E+00  0.1280E+00
      9.412  0.0000E+00  0.1280E+00
      9.518  0.0000E+00  0.1280E+00
      9.625  0.0000E+00  0.1280E+00
      9.731  0.0000E+00  0.1280E+00
