       N       E                     dE             d eps       ncg     rms          ort
DAV:   1     0.375759923151E+03    0.37576E+03   -0.46284E+04  1216   0.153E+03
DAV:   2    -0.245011689824E+03   -0.62077E+03   -0.59847E+03  1216   0.239E+02
DAV:   3    -0.320548221817E+03   -0.75537E+02   -0.75063E+02  1216   0.925E+01
DAV:   4    -0.322325816639E+03   -0.17776E+01   -0.17727E+01  1216   0.160E+01
DAV:   5    -0.322368645734E+03   -0.42829E-01   -0.42814E-01  1216   0.240E+00
SDA:   6    -0.290214747804E+03    0.32154E+02   -0.42814E-01  1216   0.326E+02 0.000E+00
CGA:   7    -0.295691647771E+03   -0.54769E+01   -0.55245E+01  1216   0.228E+01 0.799E+00
CGA:   8    -0.296434104814E+03   -0.74246E+00   -0.74003E+00  1216   0.740E+00 0.117E-01
CGA:   9    -0.296664664534E+03   -0.23056E+00   -0.23053E+00  1216   0.227E+00 0.522E-03
CGA:  10    -0.296735761580E+03   -0.71097E-01   -0.71110E-01  1216   0.616E-01-0.171E-03
CGA:  11    -0.296757948209E+03   -0.22187E-01   -0.22212E-01  1216   0.165E-01-0.183E-03
CGA:  12    -0.296763193907E+03   -0.52457E-02   -0.52468E-02  1216   0.328E-02-0.714E-05
CGA:  13    -0.296764394139E+03   -0.12002E-02   -0.12012E-02  1216   0.765E-03-0.648E-05
CGA:  14    -0.296764670994E+03   -0.27685E-03   -0.27626E-03  1216   0.160E-03 0.472E-05
CGA:  15    -0.296764734068E+03   -0.63073E-04   -0.62375E-04  1216   0.374E-04 0.476E-05
CGA:  16    -0.296764750195E+03   -0.16128E-04   -0.16099E-04  1216   0.948E-05 0.160E-06
CGA:  17    -0.296764754143E+03   -0.39481E-05   -0.39465E-05  1216   0.209E-05 0.920E-08
   1 F= -.29676475E+03 E0= -.29676475E+03  d E =-.296765E+03
       N       E                     dE             d eps       ncg     rms          ort
SDA:   1    -0.296698567858E+03    0.66182E-01    0.00000E+00  1216   0.231E+00 0.000E+00
CGA:   2    -0.296764787737E+03   -0.66220E-01   -0.66227E-01  1216   0.386E-01-0.522E-03
CGA:   3    -0.296776139593E+03   -0.11352E-01   -0.11352E-01  1216   0.935E-02 0.229E-05
CGA:   4    -0.296778762394E+03   -0.26228E-02   -0.26223E-02  1216   0.217E-02 0.588E-04
CGA:   5    -0.296779474271E+03   -0.71188E-03   -0.71089E-03  1216   0.668E-03 0.187E-04
CGA:   6    -0.296779710663E+03   -0.23639E-03   -0.23594E-03  1216   0.195E-03 0.604E-05
CGA:   7    -0.296779776541E+03   -0.65878E-04   -0.65466E-04  1216   0.457E-04 0.755E-05
CGA:   8    -0.296779792941E+03   -0.16400E-04   -0.16242E-04  1216   0.944E-05 0.260E-05
CGA:   9    -0.296779796859E+03   -0.39171E-05   -0.40068E-05  1216   0.273E-05-0.766E-06
   2 F= -.29677980E+03 E0= -.29677980E+03  d E =-.150427E-01
       N       E                     dE             d eps       ncg     rms          ort
SDA:   1    -0.296778445509E+03    0.13474E-02    0.00000E+00  1216   0.441E-02 0.000E+00
CGA:   2    -0.296779730259E+03   -0.12848E-02   -0.12843E-02  1216   0.767E-03-0.894E-04
CGA:   3    -0.296779947247E+03   -0.21699E-03   -0.21701E-03  1216   0.181E-03 0.271E-05
CGA:   4    -0.296779995715E+03   -0.48468E-04   -0.48676E-04  1216   0.402E-04 0.771E-05
CGA:   5    -0.296780008891E+03   -0.13176E-04   -0.13130E-04  1216   0.122E-04 0.229E-05
CGA:   6    -0.296780013431E+03   -0.45400E-05   -0.45022E-05  1216   0.362E-05 0.704E-06
CGA:   7    -0.296780014500E+03   -0.10690E-05   -0.10816E-05  1216   0.806E-06 0.836E-06
CGA:   8    -0.296780014729E+03   -0.22996E-06   -0.24677E-06  1216   0.235E-06 0.348E-06
   3 F= -.29678001E+03 E0= -.29678001E+03  d E =-.152606E-01
       N       E                     dE             d eps       ncg     rms          ort
SDA:   1    -0.296747071198E+03    0.32943E-01    0.00000E+00  1216   0.110E+00 0.000E+00
CGA:   2    -0.296778868712E+03   -0.31798E-01   -0.31797E-01  1216   0.257E-01-0.170E-03
CGA:   3    -0.296786119587E+03   -0.72509E-02   -0.72507E-02  1216   0.550E-02-0.883E-05
CGA:   4    -0.296787574589E+03   -0.14550E-02   -0.14558E-02  1216   0.967E-03 0.268E-04
CGA:   5    -0.296787861866E+03   -0.28728E-03   -0.28723E-03  1216   0.243E-03 0.116E-04
CGA:   6    -0.296787944326E+03   -0.82460E-04   -0.82453E-04  1216   0.705E-04 0.152E-06
CGA:   7    -0.296787971020E+03   -0.26694E-04   -0.26595E-04  1216   0.205E-04 0.120E-05
CGA:   8    -0.296787978415E+03   -0.73951E-05   -0.73117E-05  1216   0.459E-05 0.160E-05
CGA:   9    -0.296787980252E+03   -0.18366E-05   -0.18328E-05  1216   0.106E-05 0.565E-07
   4 F= -.29678798E+03 E0= -.29678798E+03  d E =-.796552E-02
       N       E                     dE             d eps       ncg     rms          ort
SDA:   1    -0.296739215764E+03    0.48763E-01    0.00000E+00  1216   0.140E+00 0.000E+00
CGA:   2    -0.296779458809E+03   -0.40243E-01   -0.40241E-01  1216   0.326E-01-0.168E-03
CGA:   3    -0.296788669432E+03   -0.92106E-02   -0.92100E-02  1216   0.701E-02-0.111E-04
CGA:   4    -0.296790520580E+03   -0.18511E-02   -0.18525E-02  1216   0.124E-02 0.287E-04
CGA:   5    -0.296790886715E+03   -0.36614E-03   -0.36628E-03  1216   0.311E-03 0.124E-04
CGA:   6    -0.296790991945E+03   -0.10523E-03   -0.10523E-03  1216   0.901E-04 0.935E-07
CGA:   7    -0.296791026087E+03   -0.34142E-04   -0.34054E-04  1216   0.264E-04 0.125E-05
CGA:   8    -0.296791035624E+03   -0.95371E-05   -0.94619E-05  1216   0.596E-05 0.173E-05
CGA:   9    -0.296791037976E+03   -0.23520E-05   -0.23501E-05  1216   0.136E-05 0.359E-07
   5 F= -.29679104E+03 E0= -.29679104E+03  d E =-.110232E-01
       N       E                     dE             d eps       ncg     rms          ort
SDA:   1    -0.296783513977E+03    0.75216E-02    0.00000E+00  1216   0.410E-01 0.000E+00
CGA:   2    -0.296794351336E+03   -0.10837E-01   -0.10833E-01  1216   0.772E-02-0.887E-04
CGA:   3    -0.296796513450E+03   -0.21621E-02   -0.21618E-02  1216   0.174E-02-0.540E-05
CGA:   4    -0.296796990187E+03   -0.47674E-03   -0.47711E-03  1216   0.355E-03 0.859E-05
CGA:   5    -0.296797096343E+03   -0.10616E-03   -0.10626E-03  1216   0.956E-04 0.605E-05
CGA:   6    -0.296797129643E+03   -0.33300E-04   -0.33287E-04  1216   0.286E-04 0.459E-06
CGA:   7    -0.296797140434E+03   -0.10792E-04   -0.10762E-04  1216   0.811E-05 0.500E-06
CGA:   8    -0.296797143188E+03   -0.27536E-05   -0.27420E-05  1216   0.170E-05 0.815E-06
   6 F= -.29679714E+03 E0= -.29679714E+03  d E =-.610521E-02
       N       E                     dE             d eps       ncg     rms          ort
SDA:   1    -0.296685431081E+03    0.11171E+00    0.00000E+00  1216   0.370E+00 0.000E+00
CGA:   2    -0.296782763995E+03   -0.97333E-01   -0.97354E-01  1216   0.695E-01-0.935E-04
CGA:   3    -0.296802267065E+03   -0.19503E-01   -0.19500E-01  1216   0.157E-01-0.404E-04
CGA:   4    -0.296806588428E+03   -0.43214E-02   -0.43226E-02  1216   0.321E-02 0.260E-04
CGA:   5    -0.296807555681E+03   -0.96725E-03   -0.96751E-03  1216   0.880E-03 0.189E-04
CGA:   6    -0.296807856167E+03   -0.30049E-03   -0.30045E-03  1216   0.259E-03 0.150E-05
CGA:   7    -0.296807954141E+03   -0.97974E-04   -0.97892E-04  1216   0.746E-04 0.134E-05
CGA:   8    -0.296807980712E+03   -0.26571E-04   -0.26477E-04  1216   0.164E-04 0.264E-05
CGA:   9    -0.296807986885E+03   -0.61728E-05   -0.61710E-05  1216   0.361E-05 0.320E-07
CGA:  10    -0.296807988332E+03   -0.14479E-05   -0.14764E-05  1216   0.943E-06-0.331E-06
   7 F= -.29680799E+03 E0= -.29680799E+03  d E =-.169504E-01
       N       E                     dE             d eps       ncg     rms          ort
SDA:   1    -0.296783479024E+03    0.24508E-01    0.00000E+00  1216   0.777E-01 0.000E+00
CGA:   2    -0.296803890721E+03   -0.20412E-01   -0.20407E-01  1216   0.147E-01-0.111E-03
CGA:   3    -0.296807991309E+03   -0.41006E-02   -0.41000E-02  1216   0.332E-02-0.844E-05
CGA:   4    -0.296808899926E+03   -0.90862E-03   -0.90918E-03  1216   0.677E-03 0.113E-04
CGA:   5    -0.296809102648E+03   -0.20272E-03   -0.20290E-03  1216   0.183E-03 0.814E-05
CGA:   6    -0.296809165839E+03   -0.63192E-04   -0.63179E-04  1216   0.544E-04 0.632E-06
CGA:   7    -0.296809186342E+03   -0.20503E-04   -0.20465E-04  1216   0.155E-04 0.693E-06
CGA:   8    -0.296809191725E+03   -0.53833E-05   -0.53633E-05  1216   0.332E-05 0.114E-05
CGA:   9    -0.296809193037E+03   -0.13114E-05   -0.13101E-05  1216   0.786E-06 0.284E-07
   8 F= -.29680919E+03 E0= -.29680919E+03  d E =-.181551E-01
       N       E                     dE             d eps       ncg     rms          ort
SDA:   1    -0.296800046696E+03    0.91450E-02    0.00000E+00  1216   0.334E-01 0.000E+00
CGA:   2    -0.296809971774E+03   -0.99251E-02   -0.99238E-02  1216   0.681E-02-0.418E-04
CGA:   3    -0.296812010344E+03   -0.20386E-02   -0.20385E-02  1216   0.137E-02-0.124E-05
CGA:   4    -0.296812366674E+03   -0.35633E-03   -0.35668E-03  1216   0.243E-03 0.504E-05
CGA:   5    -0.296812440590E+03   -0.73916E-04   -0.73965E-04  1216   0.538E-04 0.216E-05
CGA:   6    -0.296812459659E+03   -0.19069E-04   -0.19072E-04  1216   0.166E-04-0.109E-06
CGA:   7    -0.296812465824E+03   -0.61645E-05   -0.61441E-05  1216   0.501E-05 0.442E-06
CGA:   8    -0.296812467649E+03   -0.18247E-05   -0.18152E-05  1216   0.110E-05 0.392E-06
   9 F= -.29681247E+03 E0= -.29681247E+03  d E =-.327461E-02
       N       E                     dE             d eps       ncg     rms          ort
SDA:   1    -0.296752302660E+03    0.60163E-01    0.00000E+00  1216   0.170E+00 0.000E+00
CGA:   2    -0.296802743101E+03   -0.50440E-01   -0.50441E-01  1216   0.346E-01-0.582E-04
CGA:   3    -0.296813125130E+03   -0.10382E-01   -0.10382E-01  1216   0.698E-02-0.832E-05
CGA:   4    -0.296814942990E+03   -0.18179E-02   -0.18187E-02  1216   0.124E-02 0.112E-04
CGA:   5    -0.296815321173E+03   -0.37818E-03   -0.37828E-03  1216   0.276E-03 0.495E-05
CGA:   6    -0.296815418013E+03   -0.96840E-04   -0.96846E-04  1216   0.842E-04-0.209E-06
CGA:   7    -0.296815449765E+03   -0.31752E-04   -0.31701E-04  1216   0.261E-04 0.978E-06
CGA:   8    -0.296815459424E+03   -0.96597E-05   -0.96258E-05  1216   0.588E-05 0.930E-06
CGA:   9    -0.296815461671E+03   -0.22462E-05   -0.22449E-05  1216   0.123E-05 0.361E-07
  10 F= -.29681546E+03 E0= -.29681546E+03  d E =-.626863E-02
       N       E                     dE             d eps       ncg     rms          ort
SDA:   1    -0.296813665009E+03    0.17944E-02    0.00000E+00  1216   0.120E-01 0.000E+00
CGA:   2    -0.296817061758E+03   -0.33967E-02   -0.33957E-02  1216   0.192E-02-0.224E-04
CGA:   3    -0.296817674174E+03   -0.61242E-03   -0.61240E-03  1216   0.364E-03-0.979E-06
CGA:   4    -0.296817772570E+03   -0.98396E-04   -0.98512E-04  1216   0.781E-04 0.189E-05
CGA:   5    -0.296817795443E+03   -0.22873E-04   -0.22918E-04  1216   0.204E-04 0.121E-05
CGA:   6    -0.296817802789E+03   -0.73459E-05   -0.73516E-05  1216   0.669E-05-0.194E-06
CGA:   7    -0.296817805173E+03   -0.23844E-05   -0.23795E-05  1216   0.194E-05 0.153E-06
CGA:   8    -0.296817805827E+03   -0.65373E-06   -0.65409E-06  1216   0.403E-06 0.189E-06
  11 F= -.29681781E+03 E0= -.29681781E+03  d E =-.234416E-02
       N       E                     dE             d eps       ncg     rms          ort
SDA:   1    -0.296786184460E+03    0.31621E-01    0.00000E+00  1216   0.108E+00 0.000E+00
CGA:   2    -0.296816736181E+03   -0.30552E-01   -0.30551E-01  1216   0.172E-01-0.504E-04
CGA:   3    -0.296822254701E+03   -0.55185E-02   -0.55184E-02  1216   0.327E-02-0.676E-05
CGA:   4    -0.296823144597E+03   -0.88990E-03   -0.89024E-03  1216   0.703E-03 0.569E-05
CGA:   5    -0.296823352949E+03   -0.20835E-03   -0.20847E-03  1216   0.186E-03 0.377E-05
CGA:   6    -0.296823418196E+03   -0.65246E-04   -0.65261E-04  1216   0.591E-04-0.594E-06
CGA:   7    -0.296823439728E+03   -0.21532E-04   -0.21516E-04  1216   0.178E-04 0.411E-06
CGA:   8    -0.296823445974E+03   -0.62461E-05   -0.62338E-05  1216   0.383E-05 0.613E-06
CGA:   9    -0.296823447436E+03   -0.14621E-05   -0.14615E-05  1216   0.844E-06 0.159E-07
  12 F= -.29682345E+03 E0= -.29682345E+03  d E =-.798577E-02
       N       E                     dE             d eps       ncg     rms          ort
SDA:   1    -0.296679349569E+03    0.14410E+00    0.00000E+00  1216   0.432E+00 0.000E+00
CGA:   2    -0.296801592829E+03   -0.12224E+00   -0.12226E+00  1216   0.690E-01 0.120E-04
CGA:   3    -0.296823714651E+03   -0.22122E-01   -0.22121E-01  1216   0.131E-01-0.300E-04
CGA:   4    -0.296827277414E+03   -0.35628E-02   -0.35636E-02  1216   0.284E-02 0.114E-04
CGA:   5    -0.296828116306E+03   -0.83889E-03   -0.83914E-03  1216   0.752E-03 0.764E-05
CGA:   6    -0.296828378662E+03   -0.26236E-03   -0.26238E-03  1216   0.237E-03-0.117E-05
CGA:   7    -0.296828465633E+03   -0.86971E-04   -0.86942E-04  1216   0.721E-04 0.726E-06
CGA:   8    -0.296828491217E+03   -0.25584E-04   -0.25554E-04  1216   0.158E-04 0.127E-05
CGA:   9    -0.296828497099E+03   -0.58826E-05   -0.58813E-05  1216   0.337E-05 0.426E-07
CGA:  10    -0.296828498410E+03   -0.13104E-05   -0.13173E-05  1216   0.828E-06-0.127E-06
  13 F= -.29682850E+03 E0= -.29682850E+03  d E =-.130367E-01
       N       E                     dE             d eps       ncg     rms          ort
SDA:   1    -0.296818121053E+03    0.10376E-01    0.00000E+00  1216   0.345E-01 0.000E+00
CGA:   2    -0.296828643332E+03   -0.10522E-01   -0.10523E-01  1216   0.725E-02 0.173E-04
CGA:   3    -0.296830809259E+03   -0.21659E-02   -0.21655E-02  1216   0.157E-02-0.107E-04
CGA:   4    -0.296831201035E+03   -0.39178E-03   -0.39178E-03  1216   0.304E-03 0.185E-06
CGA:   5    -0.296831293027E+03   -0.91992E-04   -0.91993E-04  1216   0.761E-04 0.713E-07
CGA:   6    -0.296831320243E+03   -0.27216E-04   -0.27222E-04  1216   0.244E-04-0.210E-06
CGA:   7    -0.296831329614E+03   -0.93710E-05   -0.93858E-05  1216   0.726E-05-0.274E-06
CGA:   8    -0.296831332169E+03   -0.25547E-05   -0.25548E-05  1216   0.153E-05-0.864E-09
  14 F= -.29683133E+03 E0= -.29683133E+03  d E =-.283376E-02
       N       E                     dE             d eps       ncg     rms          ort
SDA:   1    -0.296824511126E+03    0.68185E-02    0.00000E+00  1216   0.195E-01 0.000E+00
CGA:   2    -0.296830448334E+03   -0.59372E-02   -0.59376E-02  1216   0.408E-02 0.132E-04
CGA:   3    -0.296831670352E+03   -0.12220E-02   -0.12218E-02  1216   0.884E-03-0.793E-05
CGA:   4    -0.296831890915E+03   -0.22056E-03   -0.22057E-03  1216   0.169E-03 0.197E-06
CGA:   5    -0.296831942406E+03   -0.51491E-04   -0.51491E-04  1216   0.429E-04 0.428E-07
CGA:   6    -0.296831957773E+03   -0.15367E-04   -0.15373E-04  1216   0.138E-04-0.158E-06
CGA:   7    -0.296831963088E+03   -0.53149E-05   -0.53270E-05  1216   0.413E-05-0.207E-06
CGA:   8    -0.296831964533E+03   -0.14455E-05   -0.14455E-05  1216   0.861E-06 0.660E-10
  15 F= -.29683196E+03 E0= -.29683196E+03  d E =-.346612E-02
       N       E                     dE             d eps       ncg     rms          ort
SDA:   1    -0.296827606186E+03    0.43569E-02    0.00000E+00  1216   0.167E-01 0.000E+00
CGA:   2    -0.296832354813E+03   -0.47486E-02   -0.47513E-02  1216   0.289E-02 0.575E-04
CGA:   3    -0.296833245509E+03   -0.89070E-03   -0.89051E-03  1216   0.675E-03-0.785E-05
CGA:   4    -0.296833416534E+03   -0.17102E-03   -0.17082E-03  1216   0.140E-03-0.270E-05
CGA:   5    -0.296833458987E+03   -0.42453E-04   -0.42419E-04  1216   0.351E-04-0.168E-05
CGA:   6    -0.296833471259E+03   -0.12272E-04   -0.12293E-04  1216   0.111E-04-0.735E-06
CGA:   7    -0.296833475374E+03   -0.41155E-05   -0.41483E-05  1216   0.351E-05-0.598E-06
CGA:   8    -0.296833476592E+03   -0.12178E-05   -0.12251E-05  1216   0.758E-06-0.180E-06
  16 F= -.29683348E+03 E0= -.29683348E+03  d E =-.151206E-02
       N       E                     dE             d eps       ncg     rms          ort
SDA:   1    -0.296809988800E+03    0.23487E-01    0.00000E+00  1216   0.701E-01 0.000E+00
CGA:   2    -0.296830012196E+03   -0.20023E-01   -0.20028E-01  1216   0.122E-01 0.116E-03
CGA:   3    -0.296833754991E+03   -0.37428E-02   -0.37424E-02  1216   0.283E-02-0.167E-04
CGA:   4    -0.296834473622E+03   -0.71863E-03   -0.71816E-03  1216   0.586E-03-0.597E-05
CGA:   5    -0.296834651481E+03   -0.17786E-03   -0.17779E-03  1216   0.146E-03-0.341E-05
CGA:   6    -0.296834702648E+03   -0.51168E-04   -0.51212E-04  1216   0.459E-04-0.148E-05
CGA:   7    -0.296834719585E+03   -0.16936E-04   -0.16999E-04  1216   0.140E-04-0.124E-05
CGA:   8    -0.296834724571E+03   -0.49860E-05   -0.50019E-05  1216   0.302E-05-0.401E-06
  17 F= -.29683472E+03 E0= -.29683472E+03  d E =-.276004E-02
       N       E                     dE             d eps       ncg     rms          ort
SDA:   1    -0.296832911893E+03    0.18077E-02    0.00000E+00  1216   0.982E-02 0.000E+00
CGA:   2    -0.296835493713E+03   -0.25818E-02   -0.25852E-02  1216   0.152E-02 0.523E-04
CGA:   3    -0.296835922925E+03   -0.42921E-03   -0.42911E-03  1216   0.375E-03-0.245E-05
CGA:   4    -0.296836022628E+03   -0.99703E-04   -0.99515E-04  1216   0.793E-04-0.323E-05
CGA:   5    -0.296836048991E+03   -0.26364E-04   -0.26397E-04  1216   0.250E-04-0.223E-05
CGA:   6    -0.296836057492E+03   -0.85009E-05   -0.85260E-05  1216   0.801E-05-0.863E-06
CGA:   7    -0.296836060361E+03   -0.28692E-05   -0.29016E-05  1216   0.218E-05-0.621E-06
CGA:   8    -0.296836061095E+03   -0.73402E-06   -0.73907E-06  1216   0.455E-06-0.125E-06
  18 F= -.29683606E+03 E0= -.29683606E+03  d E =-.133652E-02
       N       E                     dE             d eps       ncg     rms          ort
SDA:   1    -0.296810847045E+03    0.25213E-01    0.00000E+00  1216   0.884E-01 0.000E+00
CGA:   2    -0.296834177596E+03   -0.23331E-01   -0.23339E-01  1216   0.137E-01 0.154E-03
CGA:   3    -0.296838035135E+03   -0.38575E-02   -0.38573E-02  1216   0.338E-02-0.861E-05
CGA:   4    -0.296838929333E+03   -0.89420E-03   -0.89356E-03  1216   0.714E-03-0.108E-04
CGA:   5    -0.296839164826E+03   -0.23549E-03   -0.23558E-03  1216   0.218E-03-0.653E-05
CGA:   6    -0.296839239871E+03   -0.75045E-04   -0.75118E-04  1216   0.686E-04-0.254E-05
CGA:   7    -0.296839264504E+03   -0.24633E-04   -0.24717E-04  1216   0.175E-04-0.188E-05
CGA:   8    -0.296839270763E+03   -0.62594E-05   -0.62801E-05  1216   0.373E-05-0.459E-06
CGA:   9    -0.296839271971E+03   -0.12081E-05   -0.12062E-05  1216   0.738E-06 0.234E-06
  19 F= -.29683927E+03 E0= -.29683927E+03  d E =-.454740E-02
       N       E                     dE             d eps       ncg     rms          ort
SDA:   1    -0.296728206363E+03    0.11106E+00    0.00000E+00  1216   0.354E+00 0.000E+00
CGA:   2    -0.296821692046E+03   -0.93486E-01   -0.93495E-01  1216   0.551E-01 0.268E-03
CGA:   3    -0.296837140072E+03   -0.15448E-01   -0.15448E-01  1216   0.135E-01-0.170E-04
CGA:   4    -0.296840718521E+03   -0.35784E-02   -0.35768E-02  1216   0.286E-02-0.256E-04
CGA:   5    -0.296841660378E+03   -0.94186E-03   -0.94202E-03  1216   0.868E-03-0.129E-04
CGA:   6    -0.296841960306E+03   -0.29993E-03   -0.30007E-03  1216   0.272E-03-0.493E-05
CGA:   7    -0.296842057829E+03   -0.97522E-04   -0.97685E-04  1216   0.683E-04-0.385E-05
CGA:   8    -0.296842082487E+03   -0.24658E-04   -0.24701E-04  1216   0.145E-04-0.938E-06
CGA:   9    -0.296842087432E+03   -0.49447E-05   -0.49343E-05  1216   0.300E-05 0.489E-06
  20 F= -.29684209E+03 E0= -.29684209E+03  d E =-.736286E-02
       N       E                     dE             d eps       ncg     rms          ort
SDA:   1    -0.296824086797E+03    0.17996E-01    0.00000E+00  1216   0.529E-01 0.000E+00
CGA:   2    -0.296839177033E+03   -0.15090E-01   -0.15093E-01  1216   0.119E-01 0.875E-04
CGA:   3    -0.296842458955E+03   -0.32819E-02   -0.32816E-02  1216   0.271E-02-0.859E-05
CGA:   4    -0.296843175660E+03   -0.71670E-03   -0.71612E-03  1216   0.469E-03-0.992E-05
CGA:   5    -0.296843316818E+03   -0.14116E-03   -0.14110E-03  1216   0.121E-03-0.341E-05
CGA:   6    -0.296843355933E+03   -0.39115E-04   -0.39117E-04  1216   0.336E-04-0.339E-06
CGA:   7    -0.296843369113E+03   -0.13180E-04   -0.13246E-04  1216   0.104E-04-0.856E-06
CGA:   8    -0.296843373057E+03   -0.39439E-05   -0.39882E-05  1216   0.271E-05-0.619E-06
  21 F= -.29684337E+03 E0= -.29684337E+03  d E =-.128563E-02
       N       E                     dE             d eps       ncg     rms          ort
SDA:   1    -0.296843370120E+03   -0.10075E-05    0.00000E+00  1216   0.109E-04 0.000E+00
CGA:   2    -0.296843373622E+03   -0.35015E-05   -0.34893E-05  1216   0.371E-05-0.154E-05
CGA:   3    -0.296843374320E+03   -0.69780E-06   -0.71590E-06  1216   0.750E-06 0.174E-06
CGA:   4    -0.296843374429E+03   -0.10894E-06   -0.14042E-06  1216   0.153E-06 0.222E-06
CGA:   5    -0.296843374447E+03   -0.18014E-07   -0.30592E-07  1216   0.524E-07 0.791E-07
CGA:   6    -0.296843374462E+03   -0.15453E-07   -0.15525E-07  1216   0.168E-07 0.147E-07
CGA:   7    -0.296843374464E+03   -0.14188E-08   -0.35316E-08  1216   0.821E-08 0.140E-07
CGA:   8    -0.296843374464E+03    0.35470E-10   -0.10349E-08  1216   0.554E-08 0.652E-08
  22 F= -.29684337E+03 E0= -.29684337E+03  d E =-.128703E-02
       N       E                     dE             d eps       ncg     rms          ort
SDA:   1    -0.296838222971E+03    0.51515E-02    0.00000E+00  1216   0.190E-01 0.000E+00
CGA:   2    -0.296843411193E+03   -0.51882E-02   -0.51887E-02  1216   0.292E-02 0.548E-04
CGA:   3    -0.296844263820E+03   -0.85263E-03   -0.85267E-03  1216   0.715E-03-0.415E-05
CGA:   4    -0.296844450118E+03   -0.18630E-03   -0.18628E-03  1216   0.154E-03-0.988E-06
CGA:   5    -0.296844500220E+03   -0.50102E-04   -0.50165E-04  1216   0.450E-04-0.138E-05
CGA:   6    -0.296844515625E+03   -0.15405E-04   -0.15429E-04  1216   0.139E-04-0.387E-06
CGA:   7    -0.296844520700E+03   -0.50746E-05   -0.51091E-05  1216   0.369E-05-0.409E-06
CGA:   8    -0.296844522045E+03   -0.13455E-05   -0.13675E-05  1216   0.861E-06-0.244E-06
  23 F= -.29684452E+03 E0= -.29684452E+03  d E =-.114758E-02
       N       E                     dE             d eps       ncg     rms          ort
SDA:   1    -0.296828151219E+03    0.16369E-01    0.00000E+00  1216   0.516E-01 0.000E+00
CGA:   2    -0.296842235346E+03   -0.14084E-01   -0.14086E-01  1216   0.792E-02 0.842E-04
CGA:   3    -0.296844545249E+03   -0.23099E-02   -0.23099E-02  1216   0.193E-02-0.685E-05
CGA:   4    -0.296845049842E+03   -0.50459E-03   -0.50452E-03  1216   0.415E-03-0.188E-05
CGA:   5    -0.296845184953E+03   -0.13511E-03   -0.13518E-03  1216   0.121E-03-0.214E-05
CGA:   6    -0.296845226620E+03   -0.41667E-04   -0.41696E-04  1216   0.375E-04-0.583E-06
CGA:   7    -0.296845240289E+03   -0.13669E-04   -0.13714E-04  1216   0.979E-05-0.659E-06
CGA:   8    -0.296845243867E+03   -0.35789E-05   -0.36066E-05  1216   0.221E-05-0.382E-06
  24 F= -.29684524E+03 E0= -.29684524E+03  d E =-.186940E-02
       N       E                     dE             d eps       ncg     rms          ort
SDA:   1    -0.296839377880E+03    0.58624E-02    0.00000E+00  1216   0.198E-01 0.000E+00
CGA:   2    -0.296844996372E+03   -0.56185E-02   -0.56193E-02  1216   0.328E-02 0.326E-04
CGA:   3    -0.296846017967E+03   -0.10216E-02   -0.10216E-02  1216   0.727E-03-0.419E-05
CGA:   4    -0.296846206605E+03   -0.18864E-03   -0.18861E-03  1216   0.147E-03-0.585E-06
CGA:   5    -0.296846253318E+03   -0.46713E-04   -0.46736E-04  1216   0.375E-04-0.164E-05
CGA:   6    -0.296846266518E+03   -0.13200E-04   -0.13220E-04  1216   0.118E-04-0.380E-06
CGA:   7    -0.296846270854E+03   -0.43352E-05   -0.43484E-05  1216   0.352E-05-0.204E-06
CGA:   8    -0.296846272117E+03   -0.12636E-05   -0.12694E-05  1216   0.772E-06-0.100E-06
  25 F= -.29684627E+03 E0= -.29684627E+03  d E =-.102825E-02
       N       E                     dE             d eps       ncg     rms          ort
SDA:   1    -0.296826497841E+03    0.19773E-01    0.00000E+00  1216   0.589E-01 0.000E+00
CGA:   2    -0.296843169557E+03   -0.16672E-01   -0.16673E-01  1216   0.973E-02 0.539E-04
CGA:   3    -0.296846197200E+03   -0.30276E-02   -0.30276E-02  1216   0.216E-02-0.728E-05
CGA:   4    -0.296846757774E+03   -0.56057E-03   -0.56050E-03  1216   0.438E-03-0.115E-05
CGA:   5    -0.296846896478E+03   -0.13870E-03   -0.13872E-03  1216   0.111E-03-0.272E-05
CGA:   6    -0.296846935693E+03   -0.39215E-04   -0.39243E-04  1216   0.350E-04-0.631E-06
CGA:   7    -0.296846948547E+03   -0.12854E-04   -0.12873E-04  1216   0.103E-04-0.347E-06
CGA:   8    -0.296846952271E+03   -0.37240E-05   -0.37324E-05  1216   0.225E-05-0.174E-06
  26 F= -.29684695E+03 E0= -.29684695E+03  d E =-.170840E-02
       N       E                     dE             d eps       ncg     rms          ort
SDA:   1    -0.296838693986E+03    0.82546E-02    0.00000E+00  1216   0.272E-01 0.000E+00
CGA:   2    -0.296846322958E+03   -0.76290E-02   -0.76300E-02  1216   0.419E-02 0.252E-04
CGA:   3    -0.296847629743E+03   -0.13068E-02   -0.13068E-02  1216   0.102E-02-0.381E-05
CGA:   4    -0.296847889519E+03   -0.25978E-03   -0.25975E-03  1216   0.217E-03-0.342E-06
CGA:   5    -0.296847960314E+03   -0.70795E-04   -0.70814E-04  1216   0.583E-04-0.184E-05
CGA:   6    -0.296847980798E+03   -0.20485E-04   -0.20495E-04  1216   0.187E-04-0.284E-06
CGA:   7    -0.296847987441E+03   -0.66423E-05   -0.66451E-05  1216   0.505E-05-0.698E-07
CGA:   8    -0.296847989259E+03   -0.18180E-05   -0.18206E-05  1216   0.108E-05-0.625E-07
  27 F= -.29684799E+03 E0= -.29684799E+03  d E =-.103699E-02
       N       E                     dE             d eps       ncg     rms          ort
SDA:   1    -0.296840496084E+03    0.74914E-02    0.00000E+00  1216   0.228E-01 0.000E+00
CGA:   2    -0.296846895261E+03   -0.63992E-02   -0.64001E-02  1216   0.351E-02 0.227E-04
CGA:   3    -0.296847991546E+03   -0.10963E-02   -0.10963E-02  1216   0.851E-03-0.338E-05
CGA:   4    -0.296848209137E+03   -0.21759E-03   -0.21757E-03  1216   0.182E-03-0.280E-06
CGA:   5    -0.296848268451E+03   -0.59314E-04   -0.59328E-04  1216   0.489E-04-0.171E-05
CGA:   6    -0.296848285596E+03   -0.17145E-04   -0.17153E-04  1216   0.156E-04-0.245E-06
CGA:   7    -0.296848291152E+03   -0.55560E-05   -0.55579E-05  1216   0.423E-05-0.569E-07
CGA:   8    -0.296848292674E+03   -0.15220E-05   -0.15243E-05  1216   0.903E-06-0.582E-07
  28 F= -.29684829E+03 E0= -.29684829E+03  d E =-.134040E-02
       N       E                     dE             d eps       ncg     rms          ort
SDA:   1    -0.296844030448E+03    0.42607E-02    0.00000E+00  1216   0.151E-01 0.000E+00
CGA:   2    -0.296848180468E+03   -0.41500E-02   -0.41501E-02  1216   0.202E-02 0.162E-05
CGA:   3    -0.296848850607E+03   -0.67014E-03   -0.67012E-03  1216   0.436E-03 0.204E-05
CGA:   4    -0.296848966793E+03   -0.11619E-03   -0.11617E-03  1216   0.102E-03-0.371E-06
CGA:   5    -0.296848999029E+03   -0.32236E-04   -0.32236E-04  1216   0.262E-04 0.900E-07
CGA:   6    -0.296849008632E+03   -0.96032E-05   -0.96042E-05  1216   0.799E-05-0.230E-07
CGA:   7    -0.296849011539E+03   -0.29070E-05   -0.29051E-05  1216   0.216E-05 0.385E-07
CGA:   8    -0.296849012308E+03   -0.76823E-06   -0.76873E-06  1216   0.476E-06-0.197E-07
  29 F= -.29684901E+03 E0= -.29684901E+03  d E =-.719634E-03
       N       E                     dE             d eps       ncg     rms          ort
SDA:   1    -0.296840716942E+03    0.82946E-02    0.00000E+00  1216   0.262E-01 0.000E+00
CGA:   2    -0.296847910936E+03   -0.71940E-02   -0.71941E-02  1216   0.350E-02 0.207E-05
CGA:   3    -0.296849072563E+03   -0.11616E-02   -0.11616E-02  1216   0.756E-03 0.248E-05
CGA:   4    -0.296849274040E+03   -0.20148E-03   -0.20145E-03  1216   0.176E-03-0.455E-06
CGA:   5    -0.296849329861E+03   -0.55821E-04   -0.55821E-04  1216   0.455E-04 0.105E-06
CGA:   6    -0.296849346471E+03   -0.16610E-04   -0.16611E-04  1216   0.139E-04-0.198E-07
CGA:   7    -0.296849351516E+03   -0.50448E-05   -0.50433E-05  1216   0.376E-05 0.491E-07
CGA:   8    -0.296849352851E+03   -0.13350E-05   -0.13358E-05  1216   0.828E-06-0.295E-07
  30 F= -.29684935E+03 E0= -.29684935E+03  d E =-.106018E-02
       N       E                     dE             d eps       ncg     rms          ort
SDA:   1    -0.296848363795E+03    0.98772E-03    0.00000E+00  1216   0.453E-02 0.000E+00
CGA:   2    -0.296849572223E+03   -0.12084E-02   -0.12081E-02  1216   0.546E-03-0.479E-05
CGA:   3    -0.296849751633E+03   -0.17941E-03   -0.17941E-03  1216   0.117E-03 0.600E-06
CGA:   4    -0.296849784200E+03   -0.32568E-04   -0.32581E-04  1216   0.281E-04 0.281E-06
CGA:   5    -0.296849793507E+03   -0.93063E-05   -0.93065E-05  1216   0.784E-05 0.131E-07
CGA:   6    -0.296849796319E+03   -0.28120E-05   -0.28092E-05  1216   0.226E-05 0.796E-07
CGA:   7    -0.296849797114E+03   -0.79527E-06   -0.79336E-06  1216   0.545E-06 0.106E-06
CGA:   8    -0.296849797324E+03   -0.20991E-06   -0.21029E-06  1216   0.134E-06-0.864E-08
  31 F= -.29684980E+03 E0= -.29684980E+03  d E =-.444473E-03
       N       E                     dE             d eps       ncg     rms          ort
SDA:   1    -0.296837978865E+03    0.11818E-01    0.00000E+00  1216   0.409E-01 0.000E+00
CGA:   2    -0.296848861670E+03   -0.10883E-01   -0.10882E-01  1216   0.491E-02-0.135E-04
CGA:   3    -0.296850480686E+03   -0.16190E-02   -0.16190E-02  1216   0.105E-02 0.973E-06
CGA:   4    -0.296850774084E+03   -0.29340E-03   -0.29344E-03  1216   0.252E-03 0.739E-06
CGA:   5    -0.296850857602E+03   -0.83517E-04   -0.83517E-04  1216   0.700E-04 0.138E-06
CGA:   6    -0.296850882777E+03   -0.25176E-04   -0.25169E-04  1216   0.204E-04 0.224E-06
CGA:   7    -0.296850890061E+03   -0.72840E-05   -0.72758E-05  1216   0.509E-05 0.313E-06
CGA:   8    -0.296850891905E+03   -0.18435E-05   -0.18443E-05  1216   0.115E-05-0.225E-07
  32 F= -.29685089E+03 E0= -.29685089E+03  d E =-.153905E-02
       N       E                     dE             d eps       ncg     rms          ort
SDA:   1    -0.296800337908E+03    0.50552E-01    0.00000E+00  1216   0.163E+00 0.000E+00
CGA:   2    -0.296843852593E+03   -0.43515E-01   -0.43513E-01  1216   0.196E-01-0.231E-04
CGA:   3    -0.296850331562E+03   -0.64790E-02   -0.64790E-02  1216   0.421E-02-0.781E-07
CGA:   4    -0.296851506728E+03   -0.11752E-02   -0.11752E-02  1216   0.101E-02 0.134E-05
CGA:   5    -0.296851840668E+03   -0.33394E-03   -0.33394E-03  1216   0.280E-03 0.493E-06
CGA:   6    -0.296851941579E+03   -0.10091E-03   -0.10090E-03  1216   0.817E-04 0.451E-06
CGA:   7    -0.296851970954E+03   -0.29375E-04   -0.29359E-04  1216   0.206E-04 0.599E-06
CGA:   8    -0.296851978314E+03   -0.73595E-05   -0.73601E-05  1216   0.458E-05-0.344E-07
CGA:   9    -0.296851980041E+03   -0.17268E-05   -0.17297E-05  1216   0.103E-05-0.655E-07
  33 F= -.29685198E+03 E0= -.29685198E+03  d E =-.262719E-02
       N       E                     dE             d eps       ncg     rms          ort
SDA:   1    -0.296842290223E+03    0.96881E-02    0.00000E+00  1216   0.353E-01 0.000E+00
CGA:   2    -0.296851687668E+03   -0.93974E-02   -0.93949E-02  1216   0.400E-02-0.369E-04
CGA:   3    -0.296853063981E+03   -0.13763E-02   -0.13763E-02  1216   0.768E-03 0.181E-05
CGA:   4    -0.296853295615E+03   -0.23163E-03   -0.23168E-03  1216   0.198E-03 0.129E-05
CGA:   5    -0.296853359068E+03   -0.63453E-04   -0.63456E-04  1216   0.598E-04 0.220E-06
CGA:   6    -0.296853379878E+03   -0.20810E-04   -0.20801E-04  1216   0.168E-04 0.577E-06
CGA:   7    -0.296853385896E+03   -0.60185E-05   -0.60079E-05  1216   0.398E-05 0.511E-06
CGA:   8    -0.296853387326E+03   -0.14299E-05   -0.14293E-05  1216   0.885E-06 0.418E-07
  34 F= -.29685339E+03 E0= -.29685339E+03  d E =-.140729E-02
       N       E                     dE             d eps       ncg     rms          ort
SDA:   1    -0.296755570826E+03    0.97815E-01    0.00000E+00  1216   0.318E+00 0.000E+00
CGA:   2    -0.296840123909E+03   -0.84553E-01   -0.84550E-01  1216   0.360E-01-0.892E-04
CGA:   3    -0.296852542495E+03   -0.12419E-01   -0.12419E-01  1216   0.692E-02 0.145E-06
CGA:   4    -0.296854634332E+03   -0.20918E-02   -0.20920E-02  1216   0.178E-02 0.388E-05
CGA:   5    -0.296855205393E+03   -0.57106E-03   -0.57107E-03  1216   0.535E-03 0.125E-05
CGA:   6    -0.296855392388E+03   -0.18699E-03   -0.18696E-03  1216   0.152E-03 0.176E-05
CGA:   7    -0.296855447087E+03   -0.54699E-04   -0.54661E-04  1216   0.367E-04 0.147E-05
CGA:   8    -0.296855459886E+03   -0.12799E-04   -0.12797E-04  1216   0.795E-05 0.162E-06
CGA:   9    -0.296855462833E+03   -0.29471E-05   -0.29487E-05  1216   0.178E-05-0.481E-07
  35 F= -.29685546E+03 E0= -.29685546E+03  d E =-.348279E-02
       N       E                     dE             d eps       ncg     rms          ort
SDA:   1    -0.296849673712E+03    0.57862E-02    0.00000E+00  1216   0.226E-01 0.000E+00
CGA:   2    -0.296855588818E+03   -0.59151E-02   -0.59125E-02  1216   0.241E-02-0.354E-04
CGA:   3    -0.296856403528E+03   -0.81471E-03   -0.81470E-03  1216   0.480E-03 0.348E-05
CGA:   4    -0.296856544399E+03   -0.14087E-03   -0.14088E-03  1216   0.134E-03 0.310E-06
CGA:   5    -0.296856586381E+03   -0.41982E-04   -0.41999E-04  1216   0.397E-04 0.893E-06
CGA:   6    -0.296856600607E+03   -0.14226E-04   -0.14217E-04  1216   0.110E-04 0.367E-06
CGA:   7    -0.296856604476E+03   -0.38696E-05   -0.38632E-05  1216   0.255E-05 0.381E-06
CGA:   8    -0.296856605381E+03   -0.90477E-06   -0.90439E-06  1216   0.562E-06 0.448E-07
  36 F= -.29685661E+03 E0= -.29685661E+03  d E =-.114255E-02
       N       E                     dE             d eps       ncg     rms          ort
SDA:   1    -0.296796734014E+03    0.59870E-01    0.00000E+00  1216   0.204E+00 0.000E+00
CGA:   2    -0.296849960926E+03   -0.53227E-01   -0.53223E-01  1216   0.217E-01-0.949E-04
CGA:   3    -0.296857319770E+03   -0.73588E-02   -0.73588E-02  1216   0.432E-02 0.572E-05
CGA:   4    -0.296858589300E+03   -0.12695E-02   -0.12696E-02  1216   0.119E-02 0.932E-06
CGA:   5    -0.296858966964E+03   -0.37766E-03   -0.37771E-03  1216   0.357E-03 0.309E-05
CGA:   6    -0.296859094303E+03   -0.12734E-03   -0.12731E-03  1216   0.986E-04 0.107E-05
CGA:   7    -0.296859129464E+03   -0.35161E-04   -0.35136E-04  1216   0.234E-04 0.113E-05
CGA:   8    -0.296859137573E+03   -0.81090E-05   -0.81078E-05  1216   0.504E-05 0.140E-06
CGA:   9    -0.296859139512E+03   -0.19383E-05   -0.19426E-05  1216   0.119E-05-0.907E-07
  37 F= -.29685914E+03 E0= -.29685914E+03  d E =-.367668E-02
       N       E                     dE             d eps       ncg     rms          ort
SDA:   1    -0.296610052860E+03    0.24908E+00    0.00000E+00  1216   0.814E+00 0.000E+00
CGA:   2    -0.296822765107E+03   -0.21271E+00   -0.21274E+00  1216   0.870E-01-0.910E-04
CGA:   3    -0.296852323107E+03   -0.29558E-01   -0.29558E-01  1216   0.174E-01-0.501E-06
CGA:   4    -0.296857427326E+03   -0.51042E-02   -0.51045E-02  1216   0.480E-02 0.288E-05
CGA:   5    -0.296858944705E+03   -0.15174E-02   -0.15175E-02  1216   0.144E-02 0.702E-05
CGA:   6    -0.296859458378E+03   -0.51367E-03   -0.51362E-03  1216   0.398E-03 0.219E-05
CGA:   7    -0.296859600758E+03   -0.14238E-03   -0.14233E-03  1216   0.952E-04 0.216E-05
CGA:   8    -0.296859633517E+03   -0.32759E-04   -0.32756E-04  1216   0.205E-04 0.362E-06
CGA:   9    -0.296859641283E+03   -0.77661E-05   -0.77722E-05  1216   0.471E-05-0.149E-06
CGA:  10    -0.296859643121E+03   -0.18376E-05   -0.18345E-05  1216   0.112E-05 0.653E-07
  38 F= -.29685964E+03 E0= -.29685964E+03  d E =-.418029E-02
       N       E                     dE             d eps       ncg     rms          ort
SDA:   1    -0.296809244522E+03    0.50397E-01    0.00000E+00  1216   0.167E+00 0.000E+00
CGA:   2    -0.296852724659E+03   -0.43480E-01   -0.43488E-01  1216   0.177E-01 0.108E-03
CGA:   3    -0.296858743826E+03   -0.60192E-02   -0.60192E-02  1216   0.354E-02-0.196E-04
CGA:   4    -0.296859778254E+03   -0.10344E-02   -0.10343E-02  1216   0.976E-03-0.153E-05
CGA:   5    -0.296860087796E+03   -0.30954E-03   -0.30951E-03  1216   0.295E-03-0.151E-05
CGA:   6    -0.296860192733E+03   -0.10494E-03   -0.10496E-03  1216   0.817E-04-0.126E-05
CGA:   7    -0.296860222240E+03   -0.29506E-04   -0.29543E-04  1216   0.200E-04-0.138E-05
CGA:   8    -0.296860228887E+03   -0.66476E-05   -0.66476E-05  1216   0.415E-05 0.725E-07
CGA:   9    -0.296860230393E+03   -0.15064E-05   -0.15029E-05  1216   0.898E-06 0.147E-06
  39 F= -.29686023E+03 E0= -.29686023E+03  d E =-.476756E-02
       N       E                     dE             d eps       ncg     rms          ort
SDA:   1    -0.296839534356E+03    0.20695E-01    0.00000E+00  1216   0.754E-01 0.000E+00
CGA:   2    -0.296859087895E+03   -0.19554E-01   -0.19549E-01  1216   0.786E-02-0.628E-04
CGA:   3    -0.296861704391E+03   -0.26165E-02   -0.26165E-02  1216   0.161E-02 0.657E-05
CGA:   4    -0.296862173211E+03   -0.46882E-03   -0.46886E-03  1216   0.445E-03 0.705E-06
CGA:   5    -0.296862317269E+03   -0.14406E-03   -0.14409E-03  1216   0.135E-03 0.211E-05
CGA:   6    -0.296862365184E+03   -0.47915E-04   -0.47903E-04  1216   0.376E-04 0.808E-06
CGA:   7    -0.296862378198E+03   -0.13014E-04   -0.13009E-04  1216   0.851E-05 0.779E-06
CGA:   8    -0.296862381195E+03   -0.29969E-05   -0.29965E-05  1216   0.184E-05 0.266E-07
  40 F= -.29686238E+03 E0= -.29686238E+03  d E =-.215080E-02
       N       E                     dE             d eps       ncg     rms          ort
SDA:   1    -0.296660531303E+03    0.20185E+00    0.00000E+00  1216   0.677E+00 0.000E+00
CGA:   2    -0.296835977747E+03   -0.17545E+00   -0.17547E+00  1216   0.709E-01-0.105E-03
CGA:   3    -0.296859640164E+03   -0.23662E-01   -0.23662E-01  1216   0.146E-01 0.386E-05
CGA:   4    -0.296863886923E+03   -0.42468E-02   -0.42470E-02  1216   0.402E-02 0.286E-05
CGA:   5    -0.296865188437E+03   -0.13015E-02   -0.13016E-02  1216   0.124E-02 0.766E-05
CGA:   6    -0.296865624873E+03   -0.43644E-03   -0.43639E-03  1216   0.344E-03 0.254E-05
CGA:   7    -0.296865745048E+03   -0.12018E-03   -0.12015E-03  1216   0.793E-04 0.220E-05
CGA:   8    -0.296865772362E+03   -0.27313E-04   -0.27312E-04  1216   0.168E-04 0.173E-06
CGA:   9    -0.296865778804E+03   -0.64426E-05   -0.64560E-05  1216   0.406E-05-0.283E-06
CGA:  10    -0.296865780354E+03   -0.15498E-05   -0.15468E-05  1216   0.957E-06 0.637E-07
  41 F= -.29686578E+03 E0= -.29686578E+03  d E =-.554996E-02
       N       E                     dE             d eps       ncg     rms          ort
SDA:   1    -0.296861048573E+03    0.47302E-02    0.00000E+00  1216   0.158E-01 0.000E+00
CGA:   2    -0.296865149585E+03   -0.41010E-02   -0.40983E-02  1216   0.166E-02-0.324E-04
CGA:   3    -0.296865699395E+03   -0.54981E-03   -0.54985E-03  1216   0.338E-03 0.452E-05
CGA:   4    -0.296865798087E+03   -0.98693E-04   -0.98716E-04  1216   0.939E-04 0.460E-06
CGA:   5    -0.296865828440E+03   -0.30353E-04   -0.30365E-04  1216   0.282E-04 0.839E-06
CGA:   6    -0.296865838500E+03   -0.10059E-04   -0.10052E-04  1216   0.781E-05 0.420E-06
CGA:   7    -0.296865841169E+03   -0.26694E-05   -0.26696E-05  1216   0.173E-05 0.404E-06
CGA:   8    -0.296865841811E+03   -0.64243E-06   -0.64243E-06  1216   0.399E-06 0.177E-08
  42 F= -.29686584E+03 E0= -.29686584E+03  d E =-.561142E-02
       N       E                     dE             d eps       ncg     rms          ort
SDA:   1    -0.296864472204E+03    0.13690E-02    0.00000E+00  1216   0.728E-02 0.000E+00
CGA:   2    -0.296866687364E+03   -0.22152E-02   -0.22139E-02  1216   0.183E-02-0.329E-04
CGA:   3    -0.296867203813E+03   -0.51645E-03   -0.51672E-03  1216   0.359E-03 0.477E-05
CGA:   4    -0.296867294058E+03   -0.90245E-04   -0.90571E-04  1216   0.587E-04 0.373E-05
CGA:   5    -0.296867311128E+03   -0.17070E-04   -0.17118E-04  1216   0.129E-04 0.106E-05
CGA:   6    -0.296867315521E+03   -0.43932E-05   -0.43936E-05  1216   0.393E-05-0.461E-07
CGA:   7    -0.296867316843E+03   -0.13213E-05   -0.13192E-05  1216   0.103E-05 0.366E-06
CGA:   8    -0.296867317191E+03   -0.34787E-06   -0.35264E-06  1216   0.252E-06 0.246E-06
  43 F= -.29686732E+03 E0= -.29686732E+03  d E =-.147538E-02
       N       E                     dE             d eps       ncg     rms          ort
SDA:   1    -0.296860890096E+03    0.64267E-02    0.00000E+00  1216   0.188E-01 0.000E+00
CGA:   2    -0.296866581341E+03   -0.56912E-02   -0.56897E-02  1216   0.471E-02-0.537E-04
CGA:   3    -0.296867913298E+03   -0.13320E-02   -0.13323E-02  1216   0.932E-03 0.742E-05
CGA:   4    -0.296868147929E+03   -0.23463E-03   -0.23511E-03  1216   0.152E-03 0.604E-05
CGA:   5    -0.296868192397E+03   -0.44468E-04   -0.44530E-04  1216   0.335E-04 0.173E-05
CGA:   6    -0.296868203691E+03   -0.11294E-04   -0.11295E-04  1216   0.101E-04-0.735E-07
CGA:   7    -0.296868207222E+03   -0.35302E-05   -0.35150E-05  1216   0.276E-05 0.616E-06
CGA:   8    -0.296868208211E+03   -0.98946E-06   -0.98504E-06  1216   0.639E-06 0.424E-06
  44 F= -.29686821E+03 E0= -.29686821E+03  d E =-.236640E-02
       N       E                     dE             d eps       ncg     rms          ort
SDA:   1    -0.296868167896E+03    0.39325E-04    0.00000E+00  1216   0.310E-02 0.000E+00
CGA:   2    -0.296868989443E+03   -0.82155E-03   -0.81953E-03  1216   0.703E-03-0.308E-04
CGA:   3    -0.296869180478E+03   -0.19103E-03   -0.19103E-03  1216   0.155E-03-0.100E-06
CGA:   4    -0.296869220128E+03   -0.39651E-04   -0.39899E-04  1216   0.279E-04 0.372E-05
CGA:   5    -0.296869228204E+03   -0.80756E-05   -0.81326E-05  1216   0.663E-05 0.154E-05
CGA:   6    -0.296869230618E+03   -0.24139E-05   -0.24125E-05  1216   0.219E-05 0.564E-07
CGA:   7    -0.296869231382E+03   -0.76400E-06   -0.75941E-06  1216   0.564E-06 0.213E-06
CGA:   8    -0.296869231528E+03   -0.14628E-06   -0.15931E-06  1216   0.150E-06 0.209E-06
  45 F= -.29686923E+03 E0= -.29686923E+03  d E =-.102332E-02
       N       E                     dE             d eps       ncg     rms          ort
SDA:   1    -0.296862210895E+03    0.70205E-02    0.00000E+00  1216   0.279E-01 0.000E+00
CGA:   2    -0.296869535153E+03   -0.73243E-02   -0.73197E-02  1216   0.625E-02-0.930E-04
CGA:   3    -0.296871249985E+03   -0.17148E-02   -0.17147E-02  1216   0.140E-02-0.140E-05
CGA:   4    -0.296871614443E+03   -0.36446E-03   -0.36504E-03  1216   0.261E-03 0.114E-04
CGA:   5    -0.296871690769E+03   -0.76326E-04   -0.76414E-04  1216   0.630E-04 0.494E-05
CGA:   6    -0.296871712471E+03   -0.21701E-04   -0.21699E-04  1216   0.196E-04 0.799E-07
CGA:   7    -0.296871719733E+03   -0.72622E-05   -0.72238E-05  1216   0.538E-05 0.659E-06
CGA:   8    -0.296871721547E+03   -0.18139E-05   -0.18044E-05  1216   0.118E-05 0.814E-06
  46 F= -.29687172E+03 E0= -.29687172E+03  d E =-.351334E-02
       N       E                     dE             d eps       ncg     rms          ort
SDA:   1    -0.296836129482E+03    0.35590E-01    0.00000E+00  1216   0.111E+00 0.000E+00
CGA:   2    -0.296865338070E+03   -0.29209E-01   -0.29203E-01  1216   0.249E-01-0.166E-03
CGA:   3    -0.296872194102E+03   -0.68560E-02   -0.68555E-02  1216   0.562E-02-0.649E-05
CGA:   4    -0.296873660432E+03   -0.14663E-02   -0.14675E-02  1216   0.105E-02 0.228E-04
CGA:   5    -0.296873968361E+03   -0.30793E-03   -0.30809E-03  1216   0.256E-03 0.992E-05
CGA:   6    -0.296874055121E+03   -0.86760E-04   -0.86757E-04  1216   0.785E-04 0.140E-06
CGA:   7    -0.296874084566E+03   -0.29444E-04   -0.29358E-04  1216   0.221E-04 0.133E-05
CGA:   8    -0.296874092423E+03   -0.78575E-05   -0.77972E-05  1216   0.493E-05 0.175E-05
CGA:   9    -0.296874094379E+03   -0.19563E-05   -0.19587E-05  1216   0.123E-05-0.425E-07
  47 F= -.29687409E+03 E0= -.29687409E+03  d E =-.588617E-02
       N       E                     dE             d eps       ncg     rms          ort
SDA:   1    -0.296867810999E+03    0.62814E-02    0.00000E+00  1216   0.235E-01 0.000E+00
CGA:   2    -0.296874274648E+03   -0.64636E-02   -0.64582E-02  1216   0.535E-02-0.117E-03
CGA:   3    -0.296875798728E+03   -0.15241E-02   -0.15240E-02  1216   0.118E-02-0.288E-05
CGA:   4    -0.296876101600E+03   -0.30287E-03   -0.30378E-03  1216   0.208E-03 0.150E-04
CGA:   5    -0.296876165000E+03   -0.63400E-04   -0.63480E-04  1216   0.496E-04 0.574E-05
CGA:   6    -0.296876182479E+03   -0.17479E-04   -0.17466E-04  1216   0.163E-04 0.460E-06
CGA:   7    -0.296876188263E+03   -0.57836E-05   -0.57491E-05  1216   0.430E-05 0.992E-06
CGA:   8    -0.296876189731E+03   -0.14682E-05   -0.14653E-05  1216   0.942E-06 0.818E-06
  48 F= -.29687619E+03 E0= -.29687619E+03  d E =-.209535E-02
       N       E                     dE             d eps       ncg     rms          ort
SDA:   1    -0.296866456328E+03    0.97319E-02    0.00000E+00  1216   0.296E-01 0.000E+00
CGA:   2    -0.296874580825E+03   -0.81245E-02   -0.81186E-02  1216   0.673E-02-0.132E-03
CGA:   3    -0.296876499173E+03   -0.19183E-02   -0.19182E-02  1216   0.148E-02-0.362E-05
CGA:   4    -0.296876882106E+03   -0.38293E-03   -0.38392E-03  1216   0.261E-03 0.170E-04
CGA:   5    -0.296876962177E+03   -0.80071E-04   -0.80135E-04  1216   0.628E-04 0.643E-05
CGA:   6    -0.296876984257E+03   -0.22080E-04   -0.22066E-04  1216   0.205E-04 0.473E-06
CGA:   7    -0.296876991593E+03   -0.73358E-05   -0.72934E-05  1216   0.547E-05 0.112E-05
CGA:   8    -0.296876993490E+03   -0.18980E-05   -0.18878E-05  1216   0.118E-05 0.926E-06
  49 F= -.29687699E+03 E0= -.29687699E+03  d E =-.289911E-02
       N       E                     dE             d eps       ncg     rms          ort
SDA:   1    -0.296872553685E+03    0.44379E-02    0.00000E+00  1216   0.189E-01 0.000E+00
CGA:   2    -0.296877463741E+03   -0.49101E-02   -0.49022E-02  1216   0.333E-02-0.132E-03
CGA:   3    -0.296878442117E+03   -0.97838E-03   -0.97822E-03  1216   0.852E-03-0.715E-05
CGA:   4    -0.296878662358E+03   -0.22024E-03   -0.22088E-03  1216   0.175E-03 0.114E-04
CGA:   5    -0.296878717281E+03   -0.54922E-04   -0.54938E-04  1216   0.466E-04 0.672E-05
CGA:   6    -0.296878734255E+03   -0.16975E-04   -0.16926E-04  1216   0.156E-04 0.133E-05
CGA:   7    -0.296878739624E+03   -0.53690E-05   -0.53488E-05  1216   0.372E-05 0.109E-05
CGA:   8    -0.296878740851E+03   -0.12271E-05   -0.12315E-05  1216   0.765E-06 0.729E-06
  50 F= -.29687874E+03 E0= -.29687874E+03  d E =-.174736E-02
       N       E                     dE             d eps       ncg     rms          ort
SDA:   1    -0.296852248036E+03    0.26492E-01    0.00000E+00  1216   0.859E-01 0.000E+00
CGA:   2    -0.296874438133E+03   -0.22190E-01   -0.22174E-01  1216   0.150E-01-0.275E-03
CGA:   3    -0.296878873208E+03   -0.44351E-02   -0.44347E-02  1216   0.386E-02-0.180E-04
CGA:   4    -0.296879880358E+03   -0.10072E-02   -0.10084E-02  1216   0.804E-03 0.242E-04
CGA:   5    -0.296880135083E+03   -0.25472E-03   -0.25467E-03  1216   0.218E-03 0.147E-04
CGA:   6    -0.296880212972E+03   -0.77889E-04   -0.77784E-04  1216   0.724E-04 0.275E-05
CGA:   7    -0.296880238084E+03   -0.25112E-04   -0.25046E-04  1216   0.177E-04 0.232E-05
CGA:   8    -0.296880244284E+03   -0.62002E-05   -0.61620E-05  1216   0.351E-05 0.167E-05
CGA:   9    -0.296880245748E+03   -0.14638E-05   -0.14726E-05  1216   0.103E-05-0.130E-06
  51 F= -.29688025E+03 E0= -.29688025E+03  d E =-.325226E-02
       N       E                     dE             d eps       ncg     rms          ort
SDA:   1    -0.296871699828E+03    0.85445E-02    0.00000E+00  1216   0.301E-01 0.000E+00
CGA:   2    -0.296879687311E+03   -0.79875E-02   -0.79820E-02  1216   0.641E-02-0.931E-04
CGA:   3    -0.296881526161E+03   -0.18388E-02   -0.18388E-02  1216   0.153E-02 0.312E-06
CGA:   4    -0.296881913880E+03   -0.38772E-03   -0.38842E-03  1216   0.268E-03 0.102E-04
CGA:   5    -0.296881993346E+03   -0.79466E-04   -0.79585E-04  1216   0.648E-04 0.496E-05
CGA:   6    -0.296882015392E+03   -0.22046E-04   -0.22038E-04  1216   0.205E-04 0.502E-06
CGA:   7    -0.296882022911E+03   -0.75187E-05   -0.74863E-05  1216   0.558E-05 0.735E-06
CGA:   8    -0.296882024858E+03   -0.19470E-05   -0.19363E-05  1216   0.121E-05 0.733E-06
  52 F= -.29688202E+03 E0= -.29688202E+03  d E =-.177911E-02
       N       E                     dE             d eps       ncg     rms          ort
SDA:   1    -0.296867797726E+03    0.14225E-01    0.00000E+00  1216   0.437E-01 0.000E+00
CGA:   2    -0.296879378915E+03   -0.11581E-01   -0.11575E-01  1216   0.930E-02-0.113E-03
CGA:   3    -0.296882048318E+03   -0.26694E-02   -0.26694E-02  1216   0.221E-02-0.149E-06
CGA:   4    -0.296882612070E+03   -0.56375E-03   -0.56456E-03  1216   0.387E-03 0.125E-04
CGA:   5    -0.296882727376E+03   -0.11531E-03   -0.11542E-03  1216   0.945E-04 0.603E-05
CGA:   6    -0.296882759396E+03   -0.32020E-04   -0.32009E-04  1216   0.299E-04 0.591E-06
CGA:   7    -0.296882770356E+03   -0.10960E-04   -0.10916E-04  1216   0.817E-05 0.915E-06
CGA:   8    -0.296882773252E+03   -0.28964E-05   -0.28752E-05  1216   0.177E-05 0.907E-06
  53 F= -.29688277E+03 E0= -.29688277E+03  d E =-.252750E-02
       N       E                     dE             d eps       ncg     rms          ort
SDA:   1    -0.296880583145E+03    0.21872E-02    0.00000E+00  1216   0.113E-01 0.000E+00
CGA:   2    -0.296883422224E+03   -0.28391E-02   -0.28355E-02  1216   0.178E-02-0.512E-04
CGA:   3    -0.296883944990E+03   -0.52277E-03   -0.52276E-03  1216   0.444E-03-0.189E-06
CGA:   4    -0.296884059617E+03   -0.11463E-03   -0.11481E-03  1216   0.888E-04 0.319E-05
CGA:   5    -0.296884087354E+03   -0.27737E-04   -0.27746E-04  1216   0.224E-04 0.252E-05
CGA:   6    -0.296884095336E+03   -0.79821E-05   -0.79671E-05  1216   0.756E-05 0.474E-06
CGA:   7    -0.296884097958E+03   -0.26223E-05   -0.26114E-05  1216   0.185E-05 0.480E-06
CGA:   8    -0.296884098586E+03   -0.62815E-06   -0.62704E-06  1216   0.389E-06 0.343E-06
  54 F= -.29688410E+03 E0= -.29688410E+03  d E =-.132533E-02
       N       E                     dE             d eps       ncg     rms          ort
SDA:   1    -0.296854981361E+03    0.29117E-01    0.00000E+00  1216   0.102E+00 0.000E+00
CGA:   2    -0.296880439712E+03   -0.25458E-01   -0.25449E-01  1216   0.159E-01-0.147E-03
CGA:   3    -0.296885141772E+03   -0.47021E-02   -0.47019E-02  1216   0.401E-02-0.352E-05
CGA:   4    -0.296886178356E+03   -0.10366E-02   -0.10371E-02  1216   0.813E-03 0.943E-05
CGA:   5    -0.296886433722E+03   -0.25537E-03   -0.25536E-03  1216   0.208E-03 0.790E-05
CGA:   6    -0.296886506137E+03   -0.72415E-04   -0.72370E-04  1216   0.691E-04 0.144E-05
CGA:   7    -0.296886530504E+03   -0.24367E-04   -0.24316E-04  1216   0.175E-04 0.143E-05
CGA:   8    -0.296886536877E+03   -0.63730E-05   -0.63299E-05  1216   0.365E-05 0.112E-05
CGA:   9    -0.296886538322E+03   -0.14444E-05   -0.14503E-05  1216   0.975E-06-0.103E-06
  55 F= -.29688654E+03 E0= -.29688654E+03  d E =-.376507E-02
       N       E                     dE             d eps       ncg     rms          ort
SDA:   1    -0.296757967529E+03    0.12857E+00    0.00000E+00  1216   0.408E+00 0.000E+00
CGA:   2    -0.296859821843E+03   -0.10185E+00   -0.10185E+00  1216   0.638E-01-0.247E-03
CGA:   3    -0.296878656598E+03   -0.18835E-01   -0.18834E-01  1216   0.161E-01-0.186E-04
CGA:   4    -0.296882818959E+03   -0.41624E-02   -0.41639E-02  1216   0.328E-02 0.198E-04
CGA:   5    -0.296883848677E+03   -0.10297E-02   -0.10298E-02  1216   0.846E-03 0.160E-04
CGA:   6    -0.296884139916E+03   -0.29124E-03   -0.29116E-03  1216   0.279E-03 0.302E-05
CGA:   7    -0.296884238723E+03   -0.98807E-04   -0.98708E-04  1216   0.717E-04 0.285E-05
CGA:   8    -0.296884265131E+03   -0.26409E-04   -0.26306E-04  1216   0.153E-04 0.231E-05
CGA:   9    -0.296884270846E+03   -0.57143E-05   -0.57236E-05  1216   0.373E-05-0.221E-06
CGA:  10    -0.296884272253E+03   -0.14076E-05   -0.14193E-05  1216   0.906E-06-0.182E-06
  56 F= -.29688427E+03 E0= -.29688427E+03  d E =-.149900E-02
       N       E                     dE             d eps       ncg     rms          ort
SDA:   1    -0.296817518980E+03    0.66752E-01    0.00000E+00  1216   0.225E+00 0.000E+00
CGA:   2    -0.296873430595E+03   -0.55912E-01   -0.55924E-01  1216   0.349E-01 0.219E-03
CGA:   3    -0.296883772270E+03   -0.10342E-01   -0.10342E-01  1216   0.883E-02 0.770E-07
CGA:   4    -0.296886067578E+03   -0.22953E-02   -0.22941E-02  1216   0.181E-02-0.171E-04
CGA:   5    -0.296886641256E+03   -0.57368E-03   -0.57364E-03  1216   0.477E-03-0.110E-04
CGA:   6    -0.296886803314E+03   -0.16206E-03   -0.16209E-03  1216   0.156E-03-0.176E-05
CGA:   7    -0.296886858919E+03   -0.55606E-04   -0.55693E-04  1216   0.411E-04-0.232E-05
CGA:   8    -0.296886874390E+03   -0.15470E-04   -0.15577E-04  1216   0.934E-05-0.175E-05
CGA:   9    -0.296886877379E+03   -0.29895E-05   -0.29876E-05  1216   0.185E-05 0.302E-06
  57 F= -.29688688E+03 E0= -.29688688E+03  d E =-.410413E-02
       N       E                     dE             d eps       ncg     rms          ort
SDA:   1    -0.296884922314E+03    0.19521E-02    0.00000E+00  1216   0.968E-02 0.000E+00
CGA:   2    -0.296887394361E+03   -0.24720E-02   -0.24681E-02  1216   0.135E-02-0.537E-04
CGA:   3    -0.296887830318E+03   -0.43596E-03   -0.43596E-03  1216   0.305E-03-0.999E-06
CGA:   4    -0.296887910401E+03   -0.80083E-04   -0.80273E-04  1216   0.690E-04 0.313E-05
CGA:   5    -0.296887931717E+03   -0.21316E-04   -0.21350E-04  1216   0.162E-04 0.229E-05
CGA:   6    -0.296887937916E+03   -0.61992E-05   -0.61721E-05  1216   0.513E-05 0.563E-06
CGA:   7    -0.296887939638E+03   -0.17220E-05   -0.17211E-05  1216   0.130E-05 0.496E-06
CGA:   8    -0.296887940072E+03   -0.43398E-06   -0.43819E-06  1216   0.263E-06 0.269E-06
  58 F= -.29688794E+03 E0= -.29688794E+03  d E =-.106269E-02
       N       E                     dE             d eps       ncg     rms          ort
SDA:   1    -0.296862638165E+03    0.25301E-01    0.00000E+00  1216   0.869E-01 0.000E+00
CGA:   2    -0.296884721993E+03   -0.22084E-01   -0.22073E-01  1216   0.121E-01-0.159E-03
CGA:   3    -0.296888645681E+03   -0.39237E-02   -0.39237E-02  1216   0.273E-02-0.574E-05
CGA:   4    -0.296889370875E+03   -0.72519E-03   -0.72573E-03  1216   0.629E-03 0.931E-05
CGA:   5    -0.296889566305E+03   -0.19543E-03   -0.19550E-03  1216   0.153E-03 0.710E-05
CGA:   6    -0.296889623928E+03   -0.57623E-04   -0.57539E-04  1216   0.489E-04 0.162E-05
CGA:   7    -0.296889640779E+03   -0.16851E-04   -0.16822E-04  1216   0.130E-04 0.154E-05
CGA:   8    -0.296889645335E+03   -0.45568E-05   -0.45425E-05  1216   0.254E-05 0.849E-06
  59 F= -.29688965E+03 E0= -.29688965E+03  d E =-.276796E-02
       N       E                     dE             d eps       ncg     rms          ort
SDA:   1    -0.296888074214E+03    0.15666E-02    0.00000E+00  1216   0.853E-02 0.000E+00
CGA:   2    -0.296890293826E+03   -0.22196E-02   -0.22167E-02  1216   0.119E-02-0.429E-04
CGA:   3    -0.296890688889E+03   -0.39506E-03   -0.39505E-03  1216   0.242E-03 0.834E-06
CGA:   4    -0.296890755547E+03   -0.66657E-04   -0.66796E-04  1216   0.557E-04 0.284E-05
CGA:   5    -0.296890772556E+03   -0.17009E-04   -0.17039E-04  1216   0.140E-04 0.156E-05
CGA:   6    -0.296890777955E+03   -0.53994E-05   -0.53720E-05  1216   0.421E-05 0.538E-06
CGA:   7    -0.296890779406E+03   -0.14508E-05   -0.14472E-05  1216   0.109E-05 0.468E-06
CGA:   8    -0.296890779784E+03   -0.37839E-06   -0.38031E-06  1216   0.230E-06 0.189E-06
  60 F= -.29689078E+03 E0= -.29689078E+03  d E =-.113445E-02
       N       E                     dE             d eps       ncg     rms          ort
SDA:   1    -0.296868335302E+03    0.22444E-01    0.00000E+00  1216   0.770E-01 0.000E+00
CGA:   2    -0.296888260665E+03   -0.19925E-01   -0.19917E-01  1216   0.106E-01-0.124E-03
CGA:   3    -0.296891823295E+03   -0.35626E-02   -0.35626E-02  1216   0.218E-02 0.122E-05
CGA:   4    -0.296892426181E+03   -0.60289E-03   -0.60331E-03  1216   0.511E-03 0.843E-05
CGA:   5    -0.296892582142E+03   -0.15596E-03   -0.15606E-03  1216   0.130E-03 0.499E-05
CGA:   6    -0.296892631398E+03   -0.49255E-04   -0.49174E-04  1216   0.390E-04 0.155E-05
CGA:   7    -0.296892645278E+03   -0.13880E-04   -0.13842E-04  1216   0.105E-04 0.148E-05
CGA:   8    -0.296892648957E+03   -0.36795E-05   -0.36740E-05  1216   0.217E-05 0.567E-06
  61 F= -.29689265E+03 E0= -.29689265E+03  d E =-.300362E-02
       N       E                     dE             d eps       ncg     rms          ort
SDA:   1    -0.296890476488E+03    0.21688E-02    0.00000E+00  1216   0.722E-02 0.000E+00
CGA:   2    -0.296892351787E+03   -0.18753E-02   -0.18725E-02  1216   0.100E-02-0.394E-04
CGA:   3    -0.296892685609E+03   -0.33382E-03   -0.33381E-03  1216   0.203E-03 0.957E-06
CGA:   4    -0.296892741750E+03   -0.56141E-04   -0.56276E-04  1216   0.464E-04 0.264E-05
CGA:   5    -0.296892755965E+03   -0.14215E-04   -0.14246E-04  1216   0.118E-04 0.142E-05
CGA:   6    -0.296892760513E+03   -0.45476E-05   -0.45241E-05  1216   0.355E-05 0.482E-06
CGA:   7    -0.296892761722E+03   -0.12092E-05   -0.12088E-05  1216   0.907E-06 0.440E-06
CGA:   8    -0.296892762038E+03   -0.31580E-06   -0.31817E-06  1216   0.195E-06 0.171E-06
  62 F= -.29689276E+03 E0= -.29689276E+03  d E =-.311670E-02
       N       E                     dE             d eps       ncg     rms          ort
SDA:   1    -0.296888921651E+03    0.38401E-02    0.00000E+00  1216   0.166E-01 0.000E+00
CGA:   2    -0.296893042635E+03   -0.41210E-02   -0.41176E-02  1216   0.189E-02-0.420E-04
CGA:   3    -0.296893666779E+03   -0.62414E-03   -0.62414E-03  1216   0.389E-03 0.116E-05
CGA:   4    -0.296893777469E+03   -0.11069E-03   -0.11078E-03  1216   0.106E-03 0.215E-05
CGA:   5    -0.296893809390E+03   -0.31921E-04   -0.31957E-04  1216   0.278E-04 0.151E-05
CGA:   6    -0.296893820009E+03   -0.10620E-04   -0.10592E-04  1216   0.785E-05 0.547E-06
CGA:   7    -0.296893822701E+03   -0.26917E-05   -0.26872E-05  1216   0.198E-05 0.487E-06
CGA:   8    -0.296893823381E+03   -0.68000E-06   -0.68054E-06  1216   0.405E-06 0.175E-06
  63 F= -.29689382E+03 E0= -.29689382E+03  d E =-.106134E-02
       N       E                     dE             d eps       ncg     rms          ort
SDA:   1    -0.296851858390E+03    0.41964E-01    0.00000E+00  1216   0.150E+00 0.000E+00
CGA:   2    -0.296888898855E+03   -0.37040E-01   -0.37032E-01  1216   0.170E-01-0.117E-03
CGA:   3    -0.296894534909E+03   -0.56361E-02   -0.56360E-02  1216   0.351E-02 0.137E-05
CGA:   4    -0.296895536677E+03   -0.10018E-02   -0.10021E-02  1216   0.957E-03 0.652E-05
CGA:   5    -0.296895826581E+03   -0.28990E-03   -0.29001E-03  1216   0.255E-03 0.479E-05
CGA:   6    -0.296895923235E+03   -0.96654E-04   -0.96569E-04  1216   0.721E-04 0.165E-05
CGA:   7    -0.296895948420E+03   -0.25184E-04   -0.25156E-04  1216   0.188E-04 0.148E-05
CGA:   8    -0.296895954830E+03   -0.64107E-05   -0.64079E-05  1216   0.387E-05 0.524E-06
CGA:   9    -0.296895956410E+03   -0.15794E-05   -0.15888E-05  1216   0.971E-06-0.133E-06
  64 F= -.29689596E+03 E0= -.29689596E+03  d E =-.319437E-02
       N       E                     dE             d eps       ncg     rms          ort
SDA:   1    -0.296718121393E+03    0.17783E+00    0.00000E+00  1216   0.601E+00 0.000E+00
CGA:   2    -0.296866527592E+03   -0.14841E+00   -0.14841E+00  1216   0.683E-01-0.172E-03
CGA:   3    -0.296889207987E+03   -0.22680E-01   -0.22680E-01  1216   0.141E-01 0.192E-05
CGA:   4    -0.296893238868E+03   -0.40309E-02   -0.40317E-02  1216   0.387E-02 0.146E-04
CGA:   5    -0.296894407914E+03   -0.11690E-02   -0.11693E-02  1216   0.103E-02 0.101E-04
CGA:   6    -0.296894799111E+03   -0.39120E-03   -0.39103E-03  1216   0.292E-03 0.336E-05
CGA:   7    -0.296894901542E+03   -0.10243E-03   -0.10237E-03  1216   0.770E-04 0.292E-05
CGA:   8    -0.296894927693E+03   -0.26151E-04   -0.26145E-04  1216   0.160E-04 0.110E-05
CGA:   9    -0.296894933963E+03   -0.62705E-05   -0.62846E-05  1216   0.377E-05-0.241E-06
CGA:  10    -0.296894935453E+03   -0.14893E-05   -0.14946E-05  1216   0.988E-06-0.758E-07
  65 F= -.29689494E+03 E0= -.29689494E+03  d E =-.217341E-02
       N       E                     dE             d eps       ncg     rms          ort
SDA:   1    -0.296818684877E+03    0.76249E-01    0.00000E+00  1216   0.265E+00 0.000E+00
CGA:   2    -0.296883970308E+03   -0.65285E-01   -0.65299E-01  1216   0.299E-01 0.171E-03
CGA:   3    -0.296893924541E+03   -0.99542E-02   -0.99542E-02  1216   0.619E-02-0.165E-04
CGA:   4    -0.296895695380E+03   -0.17708E-02   -0.17703E-02  1216   0.170E-02-0.108E-04
CGA:   5    -0.296896212313E+03   -0.51693E-03   -0.51678E-03  1216   0.458E-03-0.531E-05
CGA:   6    -0.296896384684E+03   -0.17237E-03   -0.17247E-03  1216   0.130E-03-0.209E-05
CGA:   7    -0.296896430716E+03   -0.46031E-04   -0.46083E-04  1216   0.353E-04-0.228E-05
CGA:   8    -0.296896442514E+03   -0.11798E-04   -0.11801E-04  1216   0.735E-05-0.597E-06
CGA:   9    -0.296896445130E+03   -0.26168E-05   -0.26096E-05  1216   0.152E-05 0.270E-06
  66 F= -.29689645E+03 E0= -.29689645E+03  d E =-.368309E-02
       N       E                     dE             d eps       ncg     rms          ort
SDA:   1    -0.296881487346E+03    0.14955E-01    0.00000E+00  1216   0.523E-01 0.000E+00
CGA:   2    -0.296895092342E+03   -0.13605E-01   -0.13601E-01  1216   0.801E-02-0.534E-04
CGA:   3    -0.296897677020E+03   -0.25847E-02   -0.25848E-02  1216   0.172E-02 0.704E-05
CGA:   4    -0.296898129520E+03   -0.45250E-03   -0.45273E-03  1216   0.371E-03 0.304E-05
CGA:   5    -0.296898242690E+03   -0.11317E-03   -0.11321E-03  1216   0.839E-04 0.165E-05
CGA:   6    -0.296898273829E+03   -0.31139E-04   -0.31131E-04  1216   0.267E-04 0.178E-06
CGA:   7    -0.296898283248E+03   -0.94192E-05   -0.94073E-05  1216   0.767E-05 0.612E-06
CGA:   8    -0.296898286031E+03   -0.27832E-05   -0.27770E-05  1216   0.163E-05 0.286E-06
  67 F= -.29689829E+03 E0= -.29689829E+03  d E =-.184090E-02
       N       E                     dE             d eps       ncg     rms          ort
SDA:   1    -0.296885370394E+03    0.12913E-01    0.00000E+00  1216   0.419E-01 0.000E+00
CGA:   2    -0.296896264036E+03   -0.10894E-01   -0.10890E-01  1216   0.642E-02-0.494E-04
CGA:   3    -0.296898336582E+03   -0.20725E-02   -0.20726E-02  1216   0.137E-02 0.669E-05
CGA:   4    -0.296898699047E+03   -0.36247E-03   -0.36267E-03  1216   0.296E-03 0.285E-05
CGA:   5    -0.296898789363E+03   -0.90315E-04   -0.90351E-04  1216   0.676E-04 0.145E-05
CGA:   6    -0.296898814507E+03   -0.25145E-04   -0.25139E-04  1216   0.217E-04 0.148E-06
CGA:   7    -0.296898822128E+03   -0.76202E-05   -0.76089E-05  1216   0.620E-05 0.568E-06
CGA:   8    -0.296898824382E+03   -0.22541E-05   -0.22486E-05  1216   0.133E-05 0.253E-06
  68 F= -.29689882E+03 E0= -.29689882E+03  d E =-.237925E-02
       N       E                     dE             d eps       ncg     rms          ort
SDA:   1    -0.296897939919E+03    0.88221E-03    0.00000E+00  1216   0.424E-02 0.000E+00
CGA:   2    -0.296899094130E+03   -0.11542E-02   -0.11534E-02  1216   0.825E-03-0.125E-04
CGA:   3    -0.296899347206E+03   -0.25308E-03   -0.25316E-03  1216   0.185E-03 0.331E-05
CGA:   4    -0.296899394692E+03   -0.47486E-04   -0.47532E-04  1216   0.371E-04 0.604E-06
CGA:   5    -0.296899405796E+03   -0.11104E-04   -0.11112E-04  1216   0.883E-05 0.292E-06
CGA:   6    -0.296899408985E+03   -0.31900E-05   -0.31943E-05  1216   0.311E-05-0.124E-06
CGA:   7    -0.296899410045E+03   -0.10595E-05   -0.10576E-05  1216   0.832E-06 0.116E-06
CGA:   8    -0.296899410335E+03   -0.28961E-06   -0.28892E-06  1216   0.179E-06 0.103E-06
  69 F= -.29689941E+03 E0= -.29689941E+03  d E =-.585953E-03
       N       E                     dE             d eps       ncg     rms          ort
SDA:   1    -0.296893484666E+03    0.59254E-02    0.00000E+00  1216   0.186E-01 0.000E+00
CGA:   2    -0.296898516470E+03   -0.50318E-02   -0.50304E-02  1216   0.359E-02-0.252E-04
CGA:   3    -0.296899624413E+03   -0.11079E-02   -0.11081E-02  1216   0.812E-03 0.671E-05
CGA:   4    -0.296899832302E+03   -0.20789E-03   -0.20798E-03  1216   0.163E-03 0.118E-05
CGA:   5    -0.296899881268E+03   -0.48966E-04   -0.48982E-04  1216   0.387E-04 0.627E-06
CGA:   6    -0.296899895068E+03   -0.13800E-04   -0.13808E-04  1216   0.133E-04-0.249E-06
CGA:   7    -0.296899899757E+03   -0.46891E-05   -0.46820E-05  1216   0.371E-05 0.240E-06
CGA:   8    -0.296899901100E+03   -0.13430E-05   -0.13366E-05  1216   0.802E-06 0.226E-06
  70 F= -.29689990E+03 E0= -.29689990E+03  d E =-.107672E-02
       N       E                     dE             d eps       ncg     rms          ort
SDA:   1    -0.296898705155E+03    0.11946E-02    0.00000E+00  1216   0.486E-02 0.000E+00
CGA:   2    -0.296900051230E+03   -0.13461E-02   -0.13443E-02  1216   0.103E-02-0.325E-04
CGA:   3    -0.296900340422E+03   -0.28919E-03   -0.28921E-03  1216   0.214E-03 0.528E-06
CGA:   4    -0.296900396107E+03   -0.55685E-04   -0.55901E-04  1216   0.405E-04 0.326E-05
CGA:   5    -0.296900408262E+03   -0.12156E-04   -0.12187E-04  1216   0.897E-05 0.117E-05
CGA:   6    -0.296900411442E+03   -0.31793E-05   -0.31786E-05  1216   0.295E-05 0.431E-07
CGA:   7    -0.296900412431E+03   -0.98926E-06   -0.98691E-06  1216   0.742E-06 0.271E-06
CGA:   8    -0.296900412666E+03   -0.23534E-06   -0.24075E-06  1216   0.181E-06 0.208E-06
  71 F= -.29690041E+03 E0= -.29690041E+03  d E =-.511567E-03
       N       E                     dE             d eps       ncg     rms          ort
SDA:   1    -0.296893322671E+03    0.70898E-02    0.00000E+00  1216   0.215E-01 0.000E+00
CGA:   2    -0.296899244630E+03   -0.59220E-02   -0.59189E-02  1216   0.451E-02-0.685E-04
CGA:   3    -0.296900522268E+03   -0.12776E-02   -0.12776E-02  1216   0.952E-03 0.659E-06
CGA:   4    -0.296900771213E+03   -0.24894E-03   -0.24934E-03  1216   0.183E-03 0.690E-05
CGA:   5    -0.296900826255E+03   -0.55042E-04   -0.55085E-04  1216   0.409E-04 0.257E-05
CGA:   6    -0.296900840403E+03   -0.14148E-04   -0.14147E-04  1216   0.132E-04 0.521E-07
CGA:   7    -0.296900845023E+03   -0.46196E-05   -0.46003E-05  1216   0.349E-05 0.597E-06
CGA:   8    -0.296900846264E+03   -0.12414E-05   -0.12314E-05  1216   0.784E-06 0.504E-06
  72 F= -.29690085E+03 E0= -.29690085E+03  d E =-.945164E-03
       N       E                     dE             d eps       ncg     rms          ort
SDA:   1    -0.296900528230E+03    0.31679E-03    0.00000E+00  1216   0.177E-02 0.000E+00
CGA:   2    -0.296901037224E+03   -0.50899E-03   -0.50807E-03  1216   0.384E-03-0.267E-04
CGA:   3    -0.296901142539E+03   -0.10532E-03   -0.10535E-03  1216   0.814E-04 0.959E-06
CGA:   4    -0.296901162856E+03   -0.20317E-04   -0.20487E-04  1216   0.152E-04 0.254E-05
CGA:   5    -0.296901167289E+03   -0.44324E-05   -0.44592E-05  1216   0.348E-05 0.912E-06
CGA:   6    -0.296901168564E+03   -0.12754E-05   -0.12734E-05  1216   0.119E-05 0.679E-07
CGA:   7    -0.296901168936E+03   -0.37221E-06   -0.37320E-06  1216   0.291E-06 0.184E-06
CGA:   8    -0.296901169006E+03   -0.69586E-07   -0.79823E-07  1216   0.895E-07 0.134E-06
  73 F= -.29690117E+03 E0= -.29690117E+03  d E =-.322742E-03
       N       E                     dE             d eps       ncg     rms          ort
SDA:   1    -0.296896079849E+03    0.50891E-02    0.00000E+00  1216   0.159E-01 0.000E+00
CGA:   2    -0.296900605447E+03   -0.45256E-02   -0.45239E-02  1216   0.338E-02-0.816E-04
CGA:   3    -0.296901553209E+03   -0.94776E-03   -0.94780E-03  1216   0.735E-03 0.214E-05
CGA:   4    -0.296901740224E+03   -0.18702E-03   -0.18739E-03  1216   0.143E-03 0.767E-05
CGA:   5    -0.296901782124E+03   -0.41899E-04   -0.41931E-04  1216   0.329E-04 0.294E-05
CGA:   6    -0.296901793543E+03   -0.11420E-04   -0.11414E-04  1216   0.106E-04 0.149E-06
CGA:   7    -0.296901797208E+03   -0.36641E-05   -0.36410E-05  1216   0.279E-05 0.613E-06
CGA:   8    -0.296901798147E+03   -0.93984E-06   -0.93355E-06  1216   0.626E-06 0.531E-06
  74 F= -.29690180E+03 E0= -.29690180E+03  d E =-.951883E-03
       N       E                     dE             d eps       ncg     rms          ort
SDA:   1    -0.296878725077E+03    0.23072E-01    0.00000E+00  1216   0.636E-01 0.000E+00
CGA:   2    -0.296896761937E+03   -0.18037E-01   -0.18034E-01  1216   0.135E-01-0.152E-03
CGA:   3    -0.296900552511E+03   -0.37906E-02   -0.37906E-02  1216   0.294E-02 0.208E-05
CGA:   4    -0.296901303814E+03   -0.75130E-03   -0.75206E-03  1216   0.574E-03 0.152E-04
CGA:   5    -0.296901472307E+03   -0.16849E-03   -0.16856E-03  1216   0.133E-03 0.585E-05
CGA:   6    -0.296901517839E+03   -0.45533E-04   -0.45524E-04  1216   0.425E-04 0.243E-06
CGA:   7    -0.296901532796E+03   -0.14956E-04   -0.14900E-04  1216   0.116E-04 0.123E-05
CGA:   8    -0.296901536932E+03   -0.41363E-05   -0.40941E-05  1216   0.256E-05 0.113E-05
  75 F= -.29690154E+03 E0= -.29690154E+03  d E =-.690668E-03
       N       E                     dE             d eps       ncg     rms          ort
SDA:   1    -0.296893056385E+03    0.84764E-02    0.00000E+00  1216   0.249E-01 0.000E+00
CGA:   2    -0.296900059357E+03   -0.70030E-02   -0.70058E-02  1216   0.521E-02 0.992E-04
CGA:   3    -0.296901544814E+03   -0.14855E-02   -0.14854E-02  1216   0.116E-02-0.260E-05
CGA:   4    -0.296901843890E+03   -0.29908E-03   -0.29860E-03  1216   0.233E-03-0.951E-05
CGA:   5    -0.296901912192E+03   -0.68302E-04   -0.68263E-04  1216   0.545E-04-0.366E-05
CGA:   6    -0.296901930008E+03   -0.17816E-04   -0.17818E-04  1216   0.166E-04-0.823E-07
CGA:   7    -0.296901936187E+03   -0.61788E-05   -0.62335E-05  1216   0.512E-05-0.783E-06
CGA:   8    -0.296901938159E+03   -0.19721E-05   -0.20709E-05  1216   0.156E-05-0.866E-06
  76 F= -.29690194E+03 E0= -.29690194E+03  d E =-.109189E-02
       N       E                     dE             d eps       ncg     rms          ort
SDA:   1    -0.296900917639E+03    0.10185E-02    0.00000E+00  1216   0.427E-02 0.000E+00
CGA:   2    -0.296902122325E+03   -0.12047E-02   -0.12032E-02  1216   0.826E-03-0.431E-04
CGA:   3    -0.296902349737E+03   -0.22741E-03   -0.22746E-03  1216   0.178E-03 0.146E-05
CGA:   4    -0.296902395811E+03   -0.46075E-04   -0.46263E-04  1216   0.367E-04 0.357E-05
CGA:   5    -0.296902406724E+03   -0.10913E-04   -0.10938E-04  1216   0.899E-05 0.138E-05
CGA:   6    -0.296902409979E+03   -0.32542E-05   -0.32499E-05  1216   0.296E-05 0.120E-06
CGA:   7    -0.296902410937E+03   -0.95873E-06   -0.95590E-06  1216   0.714E-06 0.360E-06
CGA:   8    -0.296902411141E+03   -0.20387E-06   -0.21455E-06  1216   0.183E-06 0.247E-06
  77 F= -.29690241E+03 E0= -.29690241E+03  d E =-.472982E-03
       N       E                     dE             d eps       ncg     rms          ort
SDA:   1    -0.296889801488E+03    0.12609E-01    0.00000E+00  1216   0.384E-01 0.000E+00
CGA:   2    -0.296900562096E+03   -0.10761E-01   -0.10757E-01  1216   0.734E-02-0.127E-03
CGA:   3    -0.296902612322E+03   -0.20502E-02   -0.20503E-02  1216   0.161E-02 0.270E-05
CGA:   4    -0.296903033525E+03   -0.42120E-03   -0.42166E-03  1216   0.334E-03 0.107E-04
CGA:   5    -0.296903133307E+03   -0.99782E-04   -0.99806E-04  1216   0.839E-04 0.426E-05
CGA:   6    -0.296903162675E+03   -0.29368E-04   -0.29353E-04  1216   0.269E-04 0.346E-06
CGA:   7    -0.296903172006E+03   -0.93313E-05   -0.92845E-05  1216   0.697E-05 0.118E-05
CGA:   8    -0.296903174435E+03   -0.24289E-05   -0.24077E-05  1216   0.151E-05 0.878E-06
  78 F= -.29690317E+03 E0= -.29690317E+03  d E =-.123628E-02
       N       E                     dE             d eps       ncg     rms          ort
SDA:   1    -0.296902103516E+03    0.10685E-02    0.00000E+00  1216   0.317E-02 0.000E+00
CGA:   2    -0.296902999652E+03   -0.89614E-03   -0.89506E-03  1216   0.616E-03-0.379E-04
CGA:   3    -0.296903168736E+03   -0.16908E-03   -0.16912E-03  1216   0.131E-03 0.129E-05
CGA:   4    -0.296903202883E+03   -0.34146E-04   -0.34297E-04  1216   0.262E-04 0.318E-05
CGA:   5    -0.296903210778E+03   -0.78951E-05   -0.79075E-05  1216   0.661E-05 0.116E-05
CGA:   6    -0.296903213211E+03   -0.24328E-05   -0.24284E-05  1216   0.222E-05 0.975E-07
CGA:   7    -0.296903213914E+03   -0.70299E-06   -0.70165E-06  1216   0.530E-06 0.320E-06
CGA:   8    -0.296903214060E+03   -0.14662E-06   -0.15672E-06  1216   0.145E-06 0.205E-06
  79 F= -.29690321E+03 E0= -.29690321E+03  d E =-.127590E-02
       N       E                     dE             d eps       ncg     rms          ort
SDA:   1    -0.296898212055E+03    0.50019E-02    0.00000E+00  1216   0.155E-01 0.000E+00
CGA:   2    -0.296902669056E+03   -0.44570E-02   -0.44561E-02  1216   0.332E-02-0.568E-04
CGA:   3    -0.296903593447E+03   -0.92439E-03   -0.92444E-03  1216   0.706E-03 0.233E-05
CGA:   4    -0.296903776542E+03   -0.18309E-03   -0.18328E-03  1216   0.135E-03 0.447E-05
CGA:   5    -0.296903815842E+03   -0.39300E-04   -0.39320E-04  1216   0.308E-04 0.206E-05
CGA:   6    -0.296903826383E+03   -0.10540E-04   -0.10540E-04  1216   0.959E-05-0.795E-09
CGA:   7    -0.296903829814E+03   -0.34317E-05   -0.34134E-05  1216   0.264E-05 0.326E-06
CGA:   8    -0.296903830723E+03   -0.90914E-06   -0.89915E-06  1216   0.584E-06 0.370E-06
  80 F= -.29690383E+03 E0= -.29690383E+03  d E =-.616663E-03
       N       E                     dE             d eps       ncg     rms          ort
SDA:   1    -0.296899400843E+03    0.44290E-02    0.00000E+00  1216   0.127E-01 0.000E+00
CGA:   2    -0.296903057116E+03   -0.36563E-02   -0.36553E-02  1216   0.273E-02-0.510E-04
CGA:   3    -0.296903815281E+03   -0.75817E-03   -0.75822E-03  1216   0.578E-03 0.216E-05
CGA:   4    -0.296903965343E+03   -0.15006E-03   -0.15025E-03  1216   0.110E-03 0.403E-05
CGA:   5    -0.296903997376E+03   -0.32033E-04   -0.32057E-04  1216   0.252E-04 0.182E-05
CGA:   6    -0.296904006025E+03   -0.86497E-05   -0.86504E-05  1216   0.789E-05-0.144E-07
CGA:   7    -0.296904008837E+03   -0.28119E-05   -0.27973E-05  1216   0.216E-05 0.291E-06
CGA:   8    -0.296904009575E+03   -0.73805E-06   -0.73151E-06  1216   0.479E-06 0.326E-06
  81 F= -.29690401E+03 E0= -.29690401E+03  d E =-.795515E-03
       N       E                     dE             d eps       ncg     rms          ort
SDA:   1    -0.296900511091E+03    0.34977E-02    0.00000E+00  1216   0.107E-01 0.000E+00
CGA:   2    -0.296903574863E+03   -0.30638E-02   -0.30632E-02  1216   0.235E-02-0.254E-04
CGA:   3    -0.296904211575E+03   -0.63671E-03   -0.63680E-03  1216   0.494E-03 0.266E-05
CGA:   4    -0.296904342301E+03   -0.13073E-03   -0.13080E-03  1216   0.925E-04 0.173E-05
CGA:   5    -0.296904369062E+03   -0.26760E-04   -0.26783E-04  1216   0.212E-04 0.136E-05
CGA:   6    -0.296904376206E+03   -0.71439E-05   -0.71434E-05  1216   0.637E-05 0.180E-07
CGA:   7    -0.296904378566E+03   -0.23600E-05   -0.23555E-05  1216   0.185E-05 0.750E-07
CGA:   8    -0.296904379197E+03   -0.63114E-06   -0.62566E-06  1216   0.409E-06 0.210E-06
  82 F= -.29690438E+03 E0= -.29690438E+03  d E =-.369621E-03
       N       E                     dE             d eps       ncg     rms          ort
SDA:   1    -0.296904144226E+03    0.23434E-03    0.00000E+00  1216   0.692E-03 0.000E+00
CGA:   2    -0.296904343937E+03   -0.19971E-03   -0.19955E-03  1216   0.154E-03-0.677E-05
CGA:   3    -0.296904384943E+03   -0.41006E-04   -0.41039E-04  1216   0.316E-04 0.753E-06
CGA:   4    -0.296904393301E+03   -0.83573E-05   -0.83790E-05  1216   0.578E-05 0.473E-06
CGA:   5    -0.296904394944E+03   -0.16430E-05   -0.16513E-05  1216   0.130E-05 0.324E-06
CGA:   6    -0.296904395413E+03   -0.46974E-06   -0.46921E-06  1216   0.423E-06 0.759E-08
CGA:   7    -0.296904395565E+03   -0.15142E-06   -0.15018E-06  1216   0.116E-06 0.251E-07
CGA:   8    -0.296904395594E+03   -0.28812E-07   -0.31145E-07  1216   0.298E-07 0.418E-07
  83 F= -.29690440E+03 E0= -.29690440E+03  d E =-.386018E-03
       N       E                     dE             d eps       ncg     rms          ort
SDA:   1    -0.296903396165E+03    0.99940E-03    0.00000E+00  1216   0.316E-02 0.000E+00
CGA:   2    -0.296904357189E+03   -0.96102E-03   -0.96102E-03  1216   0.628E-03-0.715E-05
CGA:   3    -0.296904537284E+03   -0.18010E-03   -0.18009E-03  1216   0.133E-03-0.530E-07
CGA:   4    -0.296904571151E+03   -0.33868E-04   -0.33892E-04  1216   0.251E-04 0.498E-06
CGA:   5    -0.296904578617E+03   -0.74660E-05   -0.74679E-05  1216   0.565E-05 0.421E-06
CGA:   6    -0.296904580597E+03   -0.19796E-05   -0.19774E-05  1216   0.174E-05 0.491E-07
CGA:   7    -0.296904581239E+03   -0.64178E-06   -0.63960E-06  1216   0.515E-06 0.298E-07
CGA:   8    -0.296904581406E+03   -0.16726E-06   -0.16627E-06  1216   0.109E-06 0.731E-07
  84 F= -.29690458E+03 E0= -.29690458E+03  d E =-.185812E-03
       N       E                     dE             d eps       ncg     rms          ort
SDA:   1    -0.296903906295E+03    0.67494E-03    0.00000E+00  1216   0.192E-02 0.000E+00
CGA:   2    -0.296904489419E+03   -0.58312E-03   -0.58310E-03  1216   0.381E-03-0.556E-05
CGA:   3    -0.296904598555E+03   -0.10914E-03   -0.10914E-03  1216   0.808E-04-0.269E-07
CGA:   4    -0.296904619081E+03   -0.20526E-04   -0.20547E-04  1216   0.151E-04 0.387E-06
CGA:   5    -0.296904623575E+03   -0.44934E-05   -0.44956E-05  1216   0.340E-05 0.320E-06
CGA:   6    -0.296904624776E+03   -0.12011E-05   -0.11996E-05  1216   0.105E-05 0.360E-07
CGA:   7    -0.296904625165E+03   -0.38885E-06   -0.38744E-06  1216   0.310E-06 0.243E-07
CGA:   8    -0.296904625262E+03   -0.97677E-07   -0.97867E-07  1216   0.657E-07 0.532E-07
  85 F= -.29690463E+03 E0= -.29690463E+03  d E =-.229669E-03
       N       E                     dE             d eps       ncg     rms          ort
SDA:   1    -0.296904170380E+03    0.45478E-03    0.00000E+00  1216   0.163E-02 0.000E+00
CGA:   2    -0.296904657162E+03   -0.48678E-03   -0.48673E-03  1216   0.316E-03-0.420E-05
CGA:   3    -0.296904748631E+03   -0.91469E-04   -0.91456E-04  1216   0.666E-04-0.667E-06
CGA:   4    -0.296904765559E+03   -0.16928E-04   -0.16943E-04  1216   0.132E-04 0.275E-06
CGA:   5    -0.296904769493E+03   -0.39342E-05   -0.39360E-05  1216   0.312E-05 0.211E-06
CGA:   6    -0.296904770603E+03   -0.11098E-05   -0.11090E-05  1216   0.980E-06 0.136E-07
CGA:   7    -0.296904770977E+03   -0.37435E-06   -0.37573E-06  1216   0.300E-06-0.187E-07
CGA:   8    -0.296904771067E+03   -0.89678E-07   -0.89884E-07  1216   0.601E-07 0.429E-07
  86 F= -.29690477E+03 E0= -.29690477E+03  d E =-.145805E-03
       N       E                     dE             d eps       ncg     rms          ort
SDA:   1    -0.296899585741E+03    0.51852E-02    0.00000E+00  1216   0.147E-01 0.000E+00
CGA:   2    -0.296903956646E+03   -0.43709E-02   -0.43707E-02  1216   0.283E-02-0.125E-04
CGA:   3    -0.296904778033E+03   -0.82139E-03   -0.82134E-03  1216   0.598E-03-0.220E-05
CGA:   4    -0.296904930761E+03   -0.15273E-03   -0.15277E-03  1216   0.120E-03 0.772E-06
CGA:   5    -0.296904966541E+03   -0.35780E-04   -0.35785E-04  1216   0.285E-04 0.634E-06
CGA:   6    -0.296904976533E+03   -0.99919E-05   -0.99901E-05  1216   0.885E-05 0.380E-07
CGA:   7    -0.296904979861E+03   -0.33283E-05   -0.33325E-05  1216   0.264E-05-0.611E-07
CGA:   8    -0.296904980760E+03   -0.89866E-06   -0.89422E-06  1216   0.569E-06 0.142E-06
  87 F= -.29690498E+03 E0= -.29690498E+03  d E =-.355497E-03
       N       E                     dE             d eps       ncg     rms          ort
SDA:   1    -0.296904711958E+03    0.26790E-03    0.00000E+00  1216   0.108E-02 0.000E+00
CGA:   2    -0.296905022220E+03   -0.31026E-03   -0.31038E-03  1216   0.208E-03 0.436E-05
CGA:   3    -0.296905082755E+03   -0.60535E-04   -0.60501E-04  1216   0.458E-04-0.147E-05
CGA:   4    -0.296905094307E+03   -0.11552E-04   -0.11540E-04  1216   0.875E-05-0.210E-06
CGA:   5    -0.296905096963E+03   -0.26562E-05   -0.26560E-05  1216   0.215E-05-0.437E-07
CGA:   6    -0.296905097702E+03   -0.73834E-06   -0.73897E-06  1216   0.645E-06-0.138E-07
CGA:   7    -0.296905097960E+03   -0.25866E-06   -0.26715E-06  1216   0.241E-06-0.787E-07
CGA:   8    -0.296905098030E+03   -0.70021E-07   -0.69949E-07  1216   0.504E-07-0.141E-08
[...]
SDA:   1    -0.296923633363E+03    0.16439E-02    0.00000E+00  1216   0.412E-02 0.000E+00
CGA:   2    -0.296924956615E+03   -0.13233E-02   -0.13233E-02  1216   0.110E-02-0.793E-06
CGA:   3    -0.296925246463E+03   -0.28985E-03   -0.28980E-03  1216   0.183E-03-0.913E-06
CGA:   4    -0.296925293229E+03   -0.46767E-04   -0.46803E-04  1216   0.356E-04 0.579E-06
CGA:   5    -0.296925303461E+03   -0.10232E-04   -0.10236E-04  1216   0.779E-05 0.158E-06
CGA:   6    -0.296925306195E+03   -0.27337E-05   -0.27332E-05  1216   0.227E-05 0.121E-07
CGA:   7    -0.296925307061E+03   -0.86577E-06   -0.86562E-06  1216   0.707E-06 0.837E-09
CGA:   8    -0.296925307311E+03   -0.25048E-06   -0.24948E-06  1216   0.161E-06 0.267E-07
 325 F= -.29692531E+03 E0= -.29692531E+03  d E =-.299921E-04
       N       E                     dE             d eps       ncg     rms          ort
SDA:   1    -0.296922396831E+03    0.29102E-02    0.00000E+00  1216   0.719E-02 0.000E+00
CGA:   2    -0.296924707886E+03   -0.23111E-02   -0.23111E-02  1216   0.191E-02-0.106E-05
CGA:   3    -0.296925214336E+03   -0.50645E-03   -0.50638E-03  1216   0.319E-03-0.120E-05
CGA:   4    -0.296925296009E+03   -0.81673E-04   -0.81721E-04  1216   0.620E-04 0.775E-06
CGA:   5    -0.296925313840E+03   -0.17831E-04   -0.17837E-04  1216   0.137E-04 0.202E-06
CGA:   6    -0.296925318623E+03   -0.47831E-05   -0.47826E-05  1216   0.399E-05 0.214E-07
CGA:   7    -0.296925320143E+03   -0.15202E-05   -0.15206E-05  1216   0.125E-05-0.164E-08
CGA:   8    -0.296925320588E+03   -0.44462E-06   -0.44318E-06  1216   0.288E-06 0.356E-07
 326 F= -.29692532E+03 E0= -.29692532E+03  d E =-.432689E-04
       N       E                     dE             d eps       ncg     rms          ort
SDA:   1    -0.296924028626E+03    0.12915E-02    0.00000E+00  1216   0.323E-02 0.000E+00
CGA:   2    -0.296925074898E+03   -0.10463E-02   -0.10463E-02  1216   0.855E-03 0.266E-05
CGA:   3    -0.296925301813E+03   -0.22691E-03   -0.22687E-03  1216   0.144E-03-0.736E-06
CGA:   4    -0.296925338740E+03   -0.36928E-04   -0.36913E-04  1216   0.279E-04-0.225E-06
CGA:   5    -0.296925346767E+03   -0.80265E-05   -0.80267E-05  1216   0.628E-05 0.489E-08
CGA:   6    -0.296925348964E+03   -0.21972E-05   -0.21973E-05  1216   0.184E-05-0.189E-08
CGA:   7    -0.296925349686E+03   -0.72191E-06   -0.72675E-06  1216   0.608E-06-0.604E-07
CGA:   8    -0.296925349897E+03   -0.21122E-06   -0.21142E-06  1216   0.139E-06-0.252E-08
 327 F= -.29692535E+03 E0= -.29692535E+03  d E =-.293093E-04
       N       E                     dE             d eps       ncg     rms          ort
SDA:   1    -0.296921139465E+03    0.42102E-02    0.00000E+00  1216   0.103E-01 0.000E+00
CGA:   2    -0.296924490047E+03   -0.33506E-02   -0.33506E-02  1216   0.274E-02 0.489E-05
CGA:   3    -0.296925215627E+03   -0.72558E-03   -0.72550E-03  1216   0.459E-03-0.132E-05
CGA:   4    -0.296925333569E+03   -0.11794E-03   -0.11792E-03  1216   0.896E-04-0.389E-06
CGA:   5    -0.296925359292E+03   -0.25724E-04   -0.25724E-04  1216   0.200E-04 0.810E-08
CGA:   6    -0.296925366282E+03   -0.69895E-05   -0.69892E-05  1216   0.584E-05 0.330E-08
CGA:   7    -0.296925368545E+03   -0.22627E-05   -0.22701E-05  1216   0.187E-05-0.103E-06
CGA:   8    -0.296925369212E+03   -0.66714E-06   -0.66751E-06  1216   0.440E-06-0.635E-08
 328 F= -.29692537E+03 E0= -.29692537E+03  d E =-.486238E-04
       N       E                     dE             d eps       ncg     rms          ort
SDA:   1    -0.296923739634E+03    0.16289E-02    0.00000E+00  1216   0.403E-02 0.000E+00
CGA:   2    -0.296925045608E+03   -0.13060E-02   -0.13060E-02  1216   0.108E-02 0.927E-05
CGA:   3    -0.296925332556E+03   -0.28695E-03   -0.28688E-03  1216   0.182E-03-0.111E-05
CGA:   4    -0.296925379729E+03   -0.47172E-04   -0.47101E-04  1216   0.359E-04-0.115E-05
CGA:   5    -0.296925390048E+03   -0.10319E-04   -0.10315E-04  1216   0.817E-05-0.146E-06
CGA:   6    -0.296925392871E+03   -0.28236E-05   -0.28208E-05  1216   0.234E-05 0.968E-07
CGA:   7    -0.296925393817E+03   -0.94555E-06   -0.95499E-06  1216   0.814E-06-0.113E-06
CGA:   8    -0.296925394105E+03   -0.28780E-06   -0.29024E-06  1216   0.199E-06-0.506E-07
 329 F= -.29692539E+03 E0= -.29692539E+03  d E =-.248930E-04
       N       E                     dE             d eps       ncg     rms          ort
SDA:   1    -0.296925241946E+03    0.15187E-03    0.00000E+00  1216   0.376E-03 0.000E+00
CGA:   2    -0.296925363134E+03   -0.12119E-03   -0.12119E-03  1216   0.999E-04 0.278E-05
CGA:   3    -0.296925389962E+03   -0.26828E-04   -0.26809E-04  1216   0.170E-04-0.330E-06
CGA:   4    -0.296925394432E+03   -0.44700E-05   -0.44495E-05  1216   0.341E-05-0.348E-06
CGA:   5    -0.296925395399E+03   -0.96742E-06   -0.96610E-06  1216   0.778E-06-0.429E-07
CGA:   6    -0.296925395658E+03   -0.25848E-06   -0.25801E-06  1216   0.212E-06 0.284E-07
CGA:   7    -0.296925395754E+03   -0.95825E-07   -0.10143E-06  1216   0.104E-06-0.396E-07
CGA:   8    -0.296925395784E+03   -0.30608E-07   -0.31311E-07  1216   0.257E-07-0.145E-07
 330 F= -.29692540E+03 E0= -.29692540E+03  d E =-.265724E-04
       N       E                     dE             d eps       ncg     rms          ort
SDA:   1    -0.296924851297E+03    0.54446E-03    0.00000E+00  1216   0.137E-02 0.000E+00
CGA:   2    -0.296925297307E+03   -0.44601E-03   -0.44601E-03  1216   0.357E-03 0.537E-05
CGA:   3    -0.296925392823E+03   -0.95516E-04   -0.95495E-04  1216   0.619E-04-0.346E-06
CGA:   4    -0.296925408861E+03   -0.16039E-04   -0.15993E-04  1216   0.120E-04-0.718E-06
CGA:   5    -0.296925412258E+03   -0.33964E-05   -0.33948E-05  1216   0.262E-05-0.457E-07
CGA:   6    -0.296925413153E+03   -0.89537E-06   -0.89470E-06  1216   0.749E-06 0.242E-07
CGA:   7    -0.296925413464E+03   -0.31100E-06   -0.31895E-06  1216   0.289E-06-0.773E-07
CGA:   8    -0.296925413562E+03   -0.98004E-07   -0.10024E-06  1216   0.726E-07-0.343E-07
 331 F= -.29692541E+03 E0= -.29692541E+03  d E =-.177780E-04
       N       E                     dE             d eps       ncg     rms          ort
SDA:   1    -0.296923618759E+03    0.17947E-02    0.00000E+00  1216   0.441E-02 0.000E+00
CGA:   2    -0.296925053639E+03   -0.14349E-02   -0.14349E-02  1216   0.115E-02 0.968E-05
CGA:   3    -0.296925360267E+03   -0.30663E-03   -0.30659E-03  1216   0.199E-03-0.626E-06
CGA:   4    -0.296925411498E+03   -0.51231E-04   -0.51147E-04  1216   0.381E-04-0.128E-05
CGA:   5    -0.296925422397E+03   -0.10900E-04   -0.10897E-04  1216   0.841E-05-0.902E-07
CGA:   6    -0.296925425290E+03   -0.28924E-05   -0.28911E-05  1216   0.243E-05 0.448E-07
CGA:   7    -0.296925426260E+03   -0.97045E-06   -0.98093E-06  1216   0.841E-06-0.130E-06
CGA:   8    -0.296925426561E+03   -0.30032E-06   -0.30384E-06  1216   0.206E-06-0.609E-07
 332 F= -.29692543E+03 E0= -.29692543E+03  d E =-.307763E-04
       N       E                     dE             d eps       ncg     rms          ort
SDA:   1    -0.296925004311E+03    0.42195E-03    0.00000E+00  1216   0.107E-02 0.000E+00
CGA:   2    -0.296925352348E+03   -0.34804E-03   -0.34804E-03  1216   0.283E-03 0.603E-06
CGA:   3    -0.296925426889E+03   -0.74541E-04   -0.74523E-04  1216   0.479E-04-0.301E-06
CGA:   4    -0.296925439124E+03   -0.12235E-04   -0.12238E-04  1216   0.890E-05 0.465E-07
CGA:   5    -0.296925441713E+03   -0.25890E-05   -0.25881E-05  1216   0.200E-05-0.289E-07
CGA:   6    -0.296925442405E+03   -0.69218E-06   -0.69182E-06  1216   0.579E-06 0.347E-08
CGA:   7    -0.296925442627E+03   -0.22162E-06   -0.22185E-06  1216   0.182E-06-0.365E-09
CGA:   8    -0.296925442695E+03   -0.68001E-07   -0.68371E-07  1216   0.445E-07-0.279E-08
 333 F= -.29692544E+03 E0= -.29692544E+03  d E =-.161345E-04
       N       E                     dE             d eps       ncg     rms          ort
SDA:   1    -0.296921519137E+03    0.39235E-02    0.00000E+00  1216   0.963E-02 0.000E+00
CGA:   2    -0.296924652437E+03   -0.31333E-02   -0.31333E-02  1216   0.254E-02 0.168E-05
CGA:   3    -0.296925322629E+03   -0.67019E-03   -0.67015E-03  1216   0.431E-03-0.870E-06
CGA:   4    -0.296925432868E+03   -0.11024E-03   -0.11025E-03  1216   0.808E-04 0.129E-06
CGA:   5    -0.296925456216E+03   -0.23347E-04   -0.23345E-04  1216   0.178E-04-0.820E-07
CGA:   6    -0.296925462409E+03   -0.61930E-05   -0.61927E-05  1216   0.517E-05 0.113E-07
CGA:   7    -0.296925464382E+03   -0.19732E-05   -0.19731E-05  1216   0.161E-05 0.257E-08
CGA:   8    -0.296925464980E+03   -0.59847E-06   -0.59900E-06  1216   0.387E-06-0.813E-08
 334 F= -.29692546E+03 E0= -.29692546E+03  d E =-.384199E-04
       N       E                     dE             d eps       ncg     rms          ort
SDA:   1    -0.296924430147E+03    0.10342E-02    0.00000E+00  1216   0.257E-02 0.000E+00
CGA:   2    -0.296925269070E+03   -0.83892E-03   -0.83892E-03  1216   0.683E-03-0.396E-05
CGA:   3    -0.296925447765E+03   -0.17869E-03   -0.17869E-03  1216   0.116E-03-0.566E-07
CGA:   4    -0.296925477506E+03   -0.29741E-04   -0.29786E-04  1216   0.217E-04 0.666E-06
CGA:   5    -0.296925483846E+03   -0.63395E-05   -0.63416E-05  1216   0.496E-05 0.672E-07
CGA:   6    -0.296925485602E+03   -0.17559E-05   -0.17566E-05  1216   0.149E-05-0.259E-07
CGA:   7    -0.296925486149E+03   -0.54718E-06   -0.54503E-06  1216   0.436E-06 0.440E-07
CGA:   8    -0.296925486307E+03   -0.15805E-06   -0.15730E-06  1216   0.998E-07 0.286E-07
 335 F= -.29692549E+03 E0= -.29692549E+03  d E =-.213265E-04
       N       E                     dE             d eps       ncg     rms          ort
SDA:   1    -0.296924972580E+03    0.51357E-03    0.00000E+00  1216   0.126E-02 0.000E+00
CGA:   2    -0.296925384067E+03   -0.41149E-03   -0.41149E-03  1216   0.335E-03-0.278E-05
CGA:   3    -0.296925471675E+03   -0.87608E-04   -0.87605E-04  1216   0.570E-04-0.411E-07
CGA:   4    -0.296925486221E+03   -0.14546E-04   -0.14578E-04  1216   0.106E-04 0.466E-06
CGA:   5    -0.296925489328E+03   -0.31062E-05   -0.31076E-05  1216   0.242E-05 0.481E-07
CGA:   6    -0.296925490189E+03   -0.86183E-06   -0.86229E-06  1216   0.730E-06-0.191E-07
CGA:   7    -0.296925490454E+03   -0.26424E-06   -0.26283E-06  1216   0.209E-06 0.315E-07
CGA:   8    -0.296925490529E+03   -0.75265E-07   -0.74938E-07  1216   0.477E-07 0.190E-07
 336 F= -.29692549E+03 E0= -.29692549E+03  d E =-.255485E-04
       N       E                     dE             d eps       ncg     rms          ort
SDA:   1    -0.296923987284E+03    0.15032E-02    0.00000E+00  1216   0.370E-02 0.000E+00
CGA:   2    -0.296925197658E+03   -0.12104E-02   -0.12104E-02  1216   0.978E-03-0.434E-05
CGA:   3    -0.296925455678E+03   -0.25802E-03   -0.25802E-03  1216   0.170E-03-0.234E-07
CGA:   4    -0.296925498967E+03   -0.43289E-04   -0.43336E-04  1216   0.317E-04 0.686E-06
CGA:   5    -0.296925508268E+03   -0.93005E-05   -0.93036E-05  1216   0.719E-05 0.116E-06
CGA:   6    -0.296925510818E+03   -0.25506E-05   -0.25509E-05  1216   0.217E-05-0.103E-07
CGA:   7    -0.296925511631E+03   -0.81246E-06   -0.81023E-06  1216   0.647E-06 0.444E-07
CGA:   8    -0.296925511866E+03   -0.23512E-06   -0.23407E-06  1216   0.145E-06 0.331E-07
 337 F= -.29692551E+03 E0= -.29692551E+03  d E =-.213369E-04
       N       E                     dE             d eps       ncg     rms          ort
SDA:   1    -0.296923672804E+03    0.18388E-02    0.00000E+00  1216   0.448E-02 0.000E+00
CGA:   2    -0.296925139365E+03   -0.14666E-02   -0.14666E-02  1216   0.119E-02-0.477E-05
CGA:   3    -0.296925452113E+03   -0.31275E-03   -0.31275E-03  1216   0.206E-03-0.247E-07
CGA:   4    -0.296925504623E+03   -0.52510E-04   -0.52562E-04  1216   0.384E-04 0.750E-06
CGA:   5    -0.296925515895E+03   -0.11272E-04   -0.11276E-04  1216   0.872E-05 0.131E-06
CGA:   6    -0.296925518991E+03   -0.30958E-05   -0.30960E-05  1216   0.264E-05-0.124E-07
CGA:   7    -0.296925519979E+03   -0.98822E-06   -0.98516E-06  1216   0.789E-06 0.510E-07
CGA:   8    -0.296925520266E+03   -0.28711E-06   -0.28580E-06  1216   0.177E-06 0.375E-07
 338 F= -.29692552E+03 E0= -.29692552E+03  d E =-.297374E-04
       N       E                     dE             d eps       ncg     rms          ort
SDA:   1    -0.296923793644E+03    0.17263E-02    0.00000E+00  1216   0.431E-02 0.000E+00
CGA:   2    -0.296925182809E+03   -0.13892E-02   -0.13892E-02  1216   0.113E-02-0.488E-06
CGA:   3    -0.296925481972E+03   -0.29916E-03   -0.29918E-03  1216   0.197E-03 0.280E-06
CGA:   4    -0.296925532533E+03   -0.50561E-04   -0.50561E-04  1216   0.370E-04-0.359E-08
CGA:   5    -0.296925543284E+03   -0.10751E-04   -0.10754E-04  1216   0.823E-05 0.118E-06
CGA:   6    -0.296925546202E+03   -0.29183E-05   -0.29176E-05  1216   0.248E-05 0.175E-07
CGA:   7    -0.296925547152E+03   -0.95049E-06   -0.95172E-06  1216   0.782E-06-0.155E-07
CGA:   8    -0.296925547435E+03   -0.28302E-06   -0.28258E-06  1216   0.176E-06 0.784E-08
 339 F= -.29692555E+03 E0= -.29692555E+03  d E =-.271691E-04
       N       E                     dE             d eps       ncg     rms          ort
SDA:   1    -0.296921191652E+03    0.43555E-02    0.00000E+00  1216   0.108E-01 0.000E+00
CGA:   2    -0.296924655405E+03   -0.34638E-02   -0.34638E-02  1216   0.281E-02-0.513E-06
CGA:   3    -0.296925401124E+03   -0.74572E-03   -0.74573E-03  1216   0.492E-03 0.413E-06
CGA:   4    -0.296925527061E+03   -0.12594E-03   -0.12594E-03  1216   0.924E-04 0.452E-08
CGA:   5    -0.296925553911E+03   -0.26850E-04   -0.26855E-04  1216   0.205E-04 0.185E-06
CGA:   6    -0.296925561167E+03   -0.72562E-05   -0.72550E-05  1216   0.617E-05 0.333E-07
CGA:   7    -0.296925563519E+03   -0.23522E-05   -0.23537E-05  1216   0.193E-05-0.217E-07
CGA:   8    -0.296925564222E+03   -0.70268E-06   -0.70220E-06  1216   0.437E-06 0.132E-07
 340 F= -.29692556E+03 E0= -.29692556E+03  d E =-.439553E-04
       N       E                     dE             d eps       ncg     rms          ort
SDA:   1    -0.296924244836E+03    0.13187E-02    0.00000E+00  1216   0.332E-02 0.000E+00
CGA:   2    -0.296925310197E+03   -0.10654E-02   -0.10654E-02  1216   0.869E-03-0.101E-05
CGA:   3    -0.296925539688E+03   -0.22949E-03   -0.22952E-03  1216   0.150E-03 0.529E-06
CGA:   4    -0.296925578147E+03   -0.38459E-04   -0.38460E-04  1216   0.281E-04 0.529E-08
CGA:   5    -0.296925586250E+03   -0.81031E-05   -0.81073E-05  1216   0.624E-05 0.128E-06
CGA:   6    -0.296925588450E+03   -0.22003E-05   -0.22004E-05  1216   0.187E-05 0.232E-08
CGA:   7    -0.296925589163E+03   -0.71311E-06   -0.71375E-06  1216   0.592E-06-0.125E-07
CGA:   8    -0.296925589376E+03   -0.21259E-06   -0.21215E-06  1216   0.133E-06 0.103E-07
 341 F= -.29692559E+03 E0= -.29692559E+03  d E =-.251542E-04
       N       E                     dE             d eps       ncg     rms          ort
SDA:   1    -0.296920748281E+03    0.48409E-02    0.00000E+00  1216   0.120E-01 0.000E+00
CGA:   2    -0.296924598981E+03   -0.38507E-02   -0.38507E-02  1216   0.314E-02-0.159E-05
CGA:   3    -0.296925428263E+03   -0.82928E-03   -0.82934E-03  1216   0.542E-03 0.993E-06
CGA:   4    -0.296925567170E+03   -0.13891E-03   -0.13891E-03  1216   0.102E-03 0.156E-07
CGA:   5    -0.296925596615E+03   -0.29445E-04   -0.29453E-04  1216   0.225E-04 0.245E-06
CGA:   6    -0.296925604514E+03   -0.78990E-05   -0.78988E-05  1216   0.669E-05 0.138E-07
CGA:   7    -0.296925607054E+03   -0.25400E-05   -0.25415E-05  1216   0.210E-05-0.238E-07
CGA:   8    -0.296925607816E+03   -0.76189E-06   -0.76099E-06  1216   0.479E-06 0.202E-07
 342 F= -.29692561E+03 E0= -.29692561E+03  d E =-.435943E-04
       N       E                     dE             d eps       ncg     rms          ort
SDA:   1    -0.296923665066E+03    0.19420E-02    0.00000E+00  1216   0.486E-02 0.000E+00
CGA:   2    -0.296925227918E+03   -0.15629E-02   -0.15628E-02  1216   0.126E-02-0.556E-05
CGA:   3    -0.296925562283E+03   -0.33436E-03   -0.33440E-03  1216   0.218E-03 0.617E-06
CGA:   4    -0.296925617942E+03   -0.55659E-04   -0.55710E-04  1216   0.404E-04 0.750E-06
CGA:   5    -0.296925629684E+03   -0.11743E-04   -0.11750E-04  1216   0.895E-05 0.222E-06
CGA:   6    -0.296925632870E+03   -0.31860E-05   -0.31859E-05  1216   0.270E-05-0.326E-09
CGA:   7    -0.296925633878E+03   -0.10079E-05   -0.10049E-05  1216   0.812E-06 0.530E-07
CGA:   8    -0.296925634173E+03   -0.29433E-06   -0.29314E-06  1216   0.181E-06 0.454E-07
 343 F= -.29692563E+03 E0= -.29692563E+03  d E =-.263565E-04
       N       E                     dE             d eps       ncg     rms          ort
SDA:   1    -0.296918927526E+03    0.67064E-02    0.00000E+00  1216   0.166E-01 0.000E+00
CGA:   2    -0.296924264095E+03   -0.53366E-02   -0.53365E-02  1216   0.430E-02-0.100E-04
CGA:   3    -0.296925406424E+03   -0.11423E-02   -0.11424E-02  1216   0.746E-03 0.112E-05
CGA:   4    -0.296925596892E+03   -0.19047E-03   -0.19056E-03  1216   0.139E-03 0.138E-05
CGA:   5    -0.296925637218E+03   -0.40327E-04   -0.40339E-04  1216   0.306E-04 0.414E-06
CGA:   6    -0.296925648045E+03   -0.10827E-04   -0.10827E-04  1216   0.913E-05 0.408E-08
CGA:   7    -0.296925651484E+03   -0.34392E-05   -0.34335E-05  1216   0.278E-05 0.101E-06
CGA:   8    -0.296925652503E+03   -0.10190E-05   -0.10158E-05  1216   0.628E-06 0.866E-07
 344 F= -.29692565E+03 E0= -.29692565E+03  d E =-.446873E-04
       N       E                     dE             d eps       ncg     rms          ort
SDA:   1    -0.296923720284E+03    0.19312E-02    0.00000E+00  1216   0.480E-02 0.000E+00
CGA:   2    -0.296925274380E+03   -0.15541E-02   -0.15541E-02  1216   0.125E-02-0.815E-05
CGA:   3    -0.296925606416E+03   -0.33204E-03   -0.33207E-03  1216   0.218E-03 0.659E-06
CGA:   4    -0.296925662027E+03   -0.55612E-04   -0.55684E-04  1216   0.409E-04 0.105E-05
CGA:   5    -0.296925673997E+03   -0.11970E-04   -0.11979E-04  1216   0.929E-05 0.304E-06
CGA:   6    -0.296925677346E+03   -0.33489E-05   -0.33498E-05  1216   0.288E-05-0.208E-07
CGA:   7    -0.296925678415E+03   -0.10692E-05   -0.10662E-05  1216   0.860E-06 0.649E-07
CGA:   8    -0.296925678724E+03   -0.30860E-06   -0.30758E-06  1216   0.188E-06 0.557E-07
 345 F= -.29692568E+03 E0= -.29692568E+03  d E =-.262205E-04
       N       E                     dE             d eps       ncg     rms          ort
SDA:   1    -0.296920438715E+03    0.52397E-02    0.00000E+00  1216   0.129E-01 0.000E+00
CGA:   2    -0.296924609200E+03   -0.41705E-02   -0.41704E-02  1216   0.335E-02-0.132E-04
CGA:   3    -0.296925500695E+03   -0.89149E-03   -0.89156E-03  1216   0.585E-03 0.109E-05
CGA:   4    -0.296925650039E+03   -0.14934E-03   -0.14946E-03  1216   0.111E-03 0.170E-05
CGA:   5    -0.296925682293E+03   -0.32254E-04   -0.32270E-04  1216   0.249E-04 0.505E-06
CGA:   6    -0.296925691207E+03   -0.89141E-05   -0.89154E-05  1216   0.764E-05-0.321E-07
CGA:   7    -0.296925694066E+03   -0.28588E-05   -0.28533E-05  1216   0.231E-05 0.110E-06
CGA:   8    -0.296925694904E+03   -0.83761E-06   -0.83432E-06  1216   0.510E-06 0.947E-07
 346 F= -.29692569E+03 E0= -.29692569E+03  d E =-.424005E-04
       N       E                     dE             d eps       ncg     rms          ort
SDA:   1    -0.296925165534E+03    0.52853E-03    0.00000E+00  1216   0.132E-02 0.000E+00
CGA:   2    -0.296925593747E+03   -0.42821E-03   -0.42820E-03  1216   0.352E-03-0.261E-05
CGA:   3    -0.296925686989E+03   -0.93242E-04   -0.93250E-04  1216   0.621E-04 0.120E-06
CGA:   4    -0.296925702929E+03   -0.15939E-04   -0.15965E-04  1216   0.115E-04 0.375E-06
CGA:   5    -0.296925706337E+03   -0.34080E-05   -0.34122E-05  1216   0.264E-05 0.149E-06
CGA:   6    -0.296925707297E+03   -0.96004E-06   -0.95920E-06  1216   0.825E-06 0.249E-07
CGA:   7    -0.296925707606E+03   -0.30868E-06   -0.30734E-06  1216   0.247E-06 0.258E-07
CGA:   8    -0.296925707693E+03   -0.87831E-07   -0.87569E-07  1216   0.537E-07 0.197E-07
 347 F= -.29692571E+03 E0= -.29692571E+03  d E =-.127895E-04
