
Lmod is automatically replacing "cce/11.0.4" with "gcc/10.2.0".


Lmod is automatically replacing "PrgEnv-cray/8.0.0" with "PrgEnv-gnu/8.0.0".


Lmod is automatically replacing "craype-network-ofi" with "craype-network-ucx".


Inactive Modules:
  1) cray-mpich


Lmod is automatically replacing "craype-network-ucx" with "craype-network-ofi".


Inactive Modules:
  1) cray-mpich-ucx/8.1.9

Activating Modules:
  1) cray-mpich/8.1.4

 ----------------------------------------------------
    OOO  PPPP  EEEEE N   N M   M PPPP
   O   O P   P E     NN  N MM MM P   P
   O   O PPPP  EEEEE N N N M M M PPPP   -- VERSION
   O   O P     E     N  NN M   M P
    OOO  P     EEEEE N   N M   M P
 ----------------------------------------------------
 running   64 mpi-ranks, with    1 threads/rank
 distrk:  each k-point on   32 cores,    2 groups
 distr:  one band on    4 cores,    8 groups
 vasp.6.3.1 04May22 (build May 25 2022 13:42:54) complex                         
 POSCAR found type information on POSCAR C H I N Sn
 POSCAR found :  5 types and      24 ions
 scaLAPACK will be used
 -----------------------------------------------------------------------------
|                                                                             |
|               ----> ADVICE to this user running VASP <----                  |
|                                                                             |
|     You have a (more or less) 'large supercell' and for larger cells it     |
|     might be more efficient to use real-space projection operators.         |
|     Therefore, try LREAL= Auto in the INCAR file.                           |
|     Mind: For very accurate calculation, you might also keep the            |
|     reciprocal projection scheme (i.e. LREAL=.FALSE.).                      |
|                                                                             |
 -----------------------------------------------------------------------------

 WARNING: PSMAXN for non-local potential too small
 LDA part: xc-table for Pade appr. of Perdew
 POSCAR, INCAR and KPOINTS ok, starting setup
 FFT: planning ... GRIDC
 FFT: planning ... GRID_SOFT
 FFT: planning ... GRID
 WAVECAR not read
 entering main loop
       N       E                     dE             d eps       ncg     rms          ort
DAV:   1     0.375759923151E+03    0.37576E+03   -0.46284E+04  1216   0.153E+03
DAV:   2    -0.245011689824E+03   -0.62077E+03   -0.59847E+03  1216   0.239E+02
DAV:   3    -0.320548221817E+03   -0.75537E+02   -0.75063E+02  1216   0.925E+01
DAV:   4    -0.322325816639E+03   -0.17776E+01   -0.17727E+01  1216   0.160E+01
DAV:   5    -0.322368645734E+03   -0.42829E-01   -0.42814E-01  1216   0.240E+00
 gam= 0.000 g(H,U,f)=  0.274E+02 0.444E+01 0.772E+00 ort(H,U,f) = 0.000E+00 0.000E+00 0.000E+00
SDA:   6    -0.290214747804E+03    0.32154E+02   -0.42814E-01  1216   0.326E+02 0.000E+00
 gam= 0.000 trial= 0.400  step= 0.339 mean= 0.400
 gam= 0.070 g(H,U,f)=  0.173E+01 0.542E+00 0.460E-15 ort(H,U,f) =-0.653E+00 0.145E+01-0.957E-15
CGA:   7    -0.295691647771E+03   -0.54769E+01   -0.55245E+01  1216   0.228E+01 0.799E+00
 gam= 0.070 trial= 0.397  step= 0.635 mean= 0.397
 gam= 0.325 g(H,U,f)=  0.594E+00 0.146E+00 0.224E-17 ort(H,U,f) =-0.305E+00 0.317E+00 0.109E-17
CGA:   8    -0.296434104814E+03   -0.74246E+00   -0.74003E+00  1216   0.740E+00 0.117E-01
 gam= 0.325 trial= 0.409  step= 0.620 mean= 0.409
 gam= 0.307 g(H,U,f)=  0.189E+00 0.380E-01 0.775E-16 ort(H,U,f) =-0.121E+00 0.121E+00 0.978E-16
CGA:   9    -0.296664664534E+03   -0.23056E+00   -0.23053E+00  1216   0.227E+00 0.522E-03
 gam= 0.307 trial= 0.419  step= 0.625 mean= 0.419
 gam= 0.271 g(H,U,f)=  0.542E-01 0.741E-02 0.112E-17 ort(H,U,f) =-0.325E-01 0.323E-01 0.229E-17
CGA:  10    -0.296735761580E+03   -0.71097E-01   -0.71110E-01  1216   0.616E-01-0.171E-03
 gam= 0.271 trial= 0.430  step= 0.722 mean= 0.430
 gam= 0.268 g(H,U,f)=  0.156E-01 0.920E-03 0.147E-16 ort(H,U,f) =-0.521E-02 0.502E-02 0.377E-16
CGA:  11    -0.296757948209E+03   -0.22187E-01   -0.22212E-01  1216   0.165E-01-0.183E-03
 gam= 0.268 trial= 0.444  step= 0.639 mean= 0.444
 gam= 0.199 g(H,U,f)=  0.311E-02 0.170E-03 0.598E-28 ort(H,U,f) =-0.656E-03 0.649E-03-0.321E-27
CGA:  12    -0.296763193907E+03   -0.52457E-02   -0.52468E-02  1216   0.328E-02-0.714E-05
 gam= 0.199 trial= 0.454  step= 0.733 mean= 0.454
 gam= 0.233 g(H,U,f)=  0.724E-03 0.414E-04 0.361E-18 ort(H,U,f) =-0.979E-04 0.914E-04 0.951E-18
CGA:  13    -0.296764394139E+03   -0.12002E-02   -0.12012E-02  1216   0.765E-03-0.648E-05
 gam= 0.233 trial= 0.468  step= 0.723 mean= 0.468
 gam= 0.209 g(H,U,f)=  0.150E-03 0.106E-04 0.941E-30 ort(H,U,f) =-0.182E-04 0.229E-04 0.000E+00
CGA:  14    -0.296764670994E+03   -0.27685E-03   -0.27626E-03  1216   0.160E-03 0.472E-05
 gam= 0.209 trial= 0.481  step= 0.774 mean= 0.481
 gam= 0.234 g(H,U,f)=  0.346E-04 0.279E-05 0.129E-16 ort(H,U,f) =-0.246E-05 0.722E-05 0.498E-16
CGA:  15    -0.296764734068E+03   -0.63073E-04   -0.62375E-04  1216   0.374E-04 0.476E-05
 gam= 0.234 trial= 0.495  step= 0.835 mean= 0.495
 gam= 0.253 g(H,U,f)=  0.880E-05 0.677E-06 0.477E-20 ort(H,U,f) =-0.173E-05 0.189E-05 0.263E-19
CGA:  16    -0.296764750195E+03   -0.16128E-04   -0.16099E-04  1216   0.948E-05 0.160E-06
 gam= 0.253 trial= 0.512  step= 0.829 mean= 0.512
 gam= 0.221 g(H,U,f)=  0.202E-05 0.775E-07 0.837E-23 ort(H,U,f) =-0.247E-06 0.256E-06 0.244E-22
CGA:  17    -0.296764754143E+03   -0.39481E-05   -0.39465E-05  1216   0.209E-05 0.920E-08
 gam= 0.221 trial= 0.528  step= 0.756 mean= 0.528
 final diagonalization
   1 F= -.29676475E+03 E0= -.29676475E+03  d E =-.296765E+03
 curvature:   0.00 expect dE= 0.000E+00 dE for cont linesearch  0.000E+00
 trial: gam= 0.00000 g(F)=  0.495E-02 g(S)=  0.221E-01 ort = 0.000E+00 (trialstep = 0.100E+01)
 search vector abs. value=  0.271E-01
 bond charge predicted
 wavefunctions rotated
       N       E                     dE             d eps       ncg     rms          ort
 gam= 0.000 g(H,U,f)=  0.228E+00 0.344E-02 0.101E-19 ort(H,U,f) = 0.000E+00 0.000E+00 0.000E+00
SDA:   1    -0.296698567858E+03    0.66182E-01    0.00000E+00  1216   0.231E+00 0.000E+00
 gam= 0.000 trial= 0.540  step= 0.572 mean= 0.540
 gam= 0.167 g(H,U,f)=  0.362E-01 0.242E-02 0.497E-18 ort(H,U,f) =-0.138E-02 0.855E-03 0.520E-19
CGA:   2    -0.296764787737E+03   -0.66220E-01   -0.66227E-01  1216   0.386E-01-0.522E-03
 gam= 0.167 trial= 0.541  step= 0.590 mean= 0.541
 gam= 0.242 g(H,U,f)=  0.844E-02 0.910E-03 0.490E-18 ort(H,U,f) =-0.128E-02 0.129E-02 0.577E-18
CGA:   3    -0.296776139593E+03   -0.11352E-01   -0.11352E-01  1216   0.935E-02 0.229E-05
 gam= 0.242 trial= 0.544  step= 0.561 mean= 0.544
 gam= 0.232 g(H,U,f)=  0.181E-02 0.362E-03 0.139E-17 ort(H,U,f) =-0.687E-03 0.746E-03 0.321E-17
CGA:   4    -0.296778762394E+03   -0.26228E-02   -0.26223E-02  1216   0.217E-02 0.588E-04
 gam= 0.232 trial= 0.544  step= 0.650 mean= 0.544
 gam= 0.308 g(H,U,f)=  0.559E-03 0.109E-03 0.214E-17 ort(H,U,f) =-0.270E-03 0.289E-03 0.506E-17
CGA:   5    -0.296779474271E+03   -0.71188E-03   -0.71089E-03  1216   0.668E-03 0.187E-04
 gam= 0.308 trial= 0.550  step= 0.700 mean= 0.550
 gam= 0.291 g(H,U,f)=  0.174E-03 0.203E-04 0.272E-17 ort(H,U,f) =-0.705E-04 0.766E-04 0.743E-17
CGA:   6    -0.296779710663E+03   -0.23639E-03   -0.23594E-03  1216   0.195E-03 0.604E-05
 gam= 0.291 trial= 0.557  step= 0.667 mean= 0.557
 gam= 0.235 g(H,U,f)=  0.418E-04 0.384E-05 0.143E-17 ort(H,U,f) =-0.812E-05 0.157E-04 0.559E-17
CGA:   7    -0.296779776541E+03   -0.65878E-04   -0.65466E-04  1216   0.457E-04 0.755E-05
 gam= 0.235 trial= 0.563  step= 0.685 mean= 0.563
 gam= 0.207 g(H,U,f)=  0.870E-05 0.738E-06 0.389E-18 ort(H,U,f) = 0.496E-07 0.255E-05 0.182E-17
CGA:   8    -0.296779792941E+03   -0.16400E-04   -0.16242E-04  1216   0.944E-05 0.260E-05
 gam= 0.207 trial= 0.569  step= 0.804 mean= 0.569
 gam= 0.289 g(H,U,f)=  0.256E-05 0.161E-06 0.807E-19 ort(H,U,f) =-0.119E-05 0.424E-06 0.413E-18
CGA:   9    -0.296779796859E+03   -0.39171E-05   -0.40068E-05  1216   0.273E-05-0.766E-06
 gam= 0.289 trial= 0.581  step= 0.798 mean= 0.581
 final diagonalization
   2 F= -.29677980E+03 E0= -.29677980E+03  d E =-.150427E-01
 trial-energy change:   -0.015043  1 .order   -0.015140   -0.027074   -0.003207
 step:   1.1382(harm=  1.1344)  dis= 0.00876  next Energy=  -296.780018 (dE=-0.153E-01)
 bond charge predicted
 wavefunctions rotated
       N       E                     dE             d eps       ncg     rms          ort
 gam= 0.000 g(H,U,f)=  0.435E-02 0.673E-04 0.200E-19 ort(H,U,f) = 0.000E+00 0.000E+00 0.000E+00
SDA:   1    -0.296778445509E+03    0.13474E-02    0.00000E+00  1216   0.441E-02 0.000E+00
 gam= 0.000 trial= 0.592  step= 0.582 mean= 0.592
 gam= 0.174 g(H,U,f)=  0.719E-03 0.485E-04 0.290E-17 ort(H,U,f) =-0.106E-03 0.170E-04 0.230E-18
CGA:   2    -0.296779730259E+03   -0.12848E-02   -0.12843E-02  1216   0.767E-03-0.894E-04
 gam= 0.174 trial= 0.591  step= 0.578 mean= 0.591
 gam= 0.236 g(H,U,f)=  0.163E-03 0.178E-04 0.229E-17 ort(H,U,f) =-0.231E-04 0.258E-04 0.274E-17
CGA:   3    -0.296779947247E+03   -0.21699E-03   -0.21701E-03  1216   0.181E-03 0.271E-05
 gam= 0.236 trial= 0.590  step= 0.536 mean= 0.590
 gam= 0.222 g(H,U,f)=  0.331E-04 0.710E-05 0.108E-17 ort(H,U,f) =-0.702E-05 0.147E-04 0.240E-17
CGA:   4    -0.296779995715E+03   -0.48468E-04   -0.48676E-04  1216   0.402E-04 0.771E-05
 gam= 0.222 trial= 0.588  step= 0.627 mean= 0.588
 gam= 0.304 g(H,U,f)=  0.981E-05 0.242E-05 0.617E-18 ort(H,U,f) =-0.367E-05 0.596E-05 0.141E-17
CGA:   5    -0.296780008891E+03   -0.13176E-04   -0.13130E-04  1216   0.122E-04 0.229E-05
 gam= 0.304 trial= 0.590  step= 0.697 mean= 0.590
 gam= 0.296 g(H,U,f)=  0.314E-05 0.478E-06 0.352E-18 ort(H,U,f) =-0.100E-05 0.171E-05 0.915E-18
CGA:   6    -0.296780013431E+03   -0.45400E-05   -0.45022E-05  1216   0.362E-05 0.704E-06
 gam= 0.296 trial= 0.595  step= 0.565 mean= 0.595
 gam= 0.223 g(H,U,f)=  0.683E-06 0.123E-06 0.138E-18 ort(H,U,f) = 0.368E-06 0.468E-06 0.438E-18
CGA:   7    -0.296780014500E+03   -0.10690E-05   -0.10816E-05  1216   0.806E-06 0.836E-06
 gam= 0.223 trial= 0.594  step= 0.497 mean= 0.594
 gam= 0.292 g(H,U,f)=  0.187E-06 0.482E-07 0.592E-19 ort(H,U,f) = 0.211E-06 0.137E-06 0.167E-18
CGA:   8    -0.296780014729E+03   -0.22996E-06   -0.24677E-06  1216   0.235E-06 0.348E-06
 gam= 0.292 trial= 0.589  step= 0.582 mean= 0.589
 final diagonalization
   3 F= -.29678001E+03 E0= -.29678001E+03  d E =-.152606E-01
 curvature:  -0.57 expect dE=-0.256E-01 dE for cont linesearch -0.862E-08
 trial: gam= 1.67064 g(F)=  0.426E-01 g(S)=  0.259E-02 ort =-0.203E-04 (trialstep = 0.230E+00)
 search vector abs. value=  0.121E+00
 bond charge predicted
 wavefunctions rotated
       N       E                     dE             d eps       ncg     rms          ort
 gam= 0.000 g(H,U,f)=  0.109E+00 0.162E-02 0.137E-17 ort(H,U,f) = 0.000E+00 0.000E+00 0.000E+00
SDA:   1    -0.296747071198E+03    0.32943E-01    0.00000E+00  1216   0.110E+00 0.000E+00
 gam= 0.000 trial= 0.588  step= 0.577 mean= 0.588
 gam= 0.233 g(H,U,f)=  0.250E-01 0.640E-03 0.659E-17 ort(H,U,f) = 0.238E-03-0.409E-03 0.500E-17
CGA:   2    -0.296778868712E+03   -0.31798E-01   -0.31797E-01  1216   0.257E-01-0.170E-03
 gam= 0.233 trial= 0.588  step= 0.566 mean= 0.588
 gam= 0.214 g(H,U,f)=  0.520E-02 0.308E-03 0.538E-17 ort(H,U,f) =-0.190E-03 0.181E-03 0.424E-17
CGA:   3    -0.296786119587E+03   -0.72509E-02   -0.72507E-02  1216   0.550E-02-0.883E-05
 gam= 0.214 trial= 0.587  step= 0.529 mean= 0.587
 gam= 0.176 g(H,U,f)=  0.886E-03 0.810E-04 0.268E-17 ort(H,U,f) =-0.140E-03 0.167E-03 0.600E-17
CGA:   4    -0.296787574589E+03   -0.14550E-02   -0.14558E-02  1216   0.967E-03 0.268E-04
 gam= 0.176 trial= 0.584  step= 0.591 mean= 0.584
 gam= 0.251 g(H,U,f)=  0.209E-03 0.339E-04 0.122E-17 ort(H,U,f) =-0.578E-04 0.694E-04 0.279E-17
CGA:   5    -0.296787861866E+03   -0.28728E-03   -0.28723E-03  1216   0.243E-03 0.116E-04
 gam= 0.251 trial= 0.584  step= 0.671 mean= 0.584
 gam= 0.291 g(H,U,f)=  0.605E-04 0.100E-04 0.889E-18 ort(H,U,f) =-0.270E-04 0.272E-04 0.178E-17
CGA:   6    -0.296787944326E+03   -0.82460E-04   -0.82453E-04  1216   0.705E-04 0.152E-06
 gam= 0.291 trial= 0.589  step= 0.753 mean= 0.589
 gam= 0.291 g(H,U,f)=  0.187E-04 0.183E-05 0.350E-18 ort(H,U,f) =-0.559E-05 0.679E-05 0.103E-17
CGA:   7    -0.296787971020E+03   -0.26694E-04   -0.26595E-04  1216   0.205E-04 0.120E-05
 gam= 0.291 trial= 0.597  step= 0.701 mean= 0.597
 gam= 0.224 g(H,U,f)=  0.435E-05 0.242E-06 0.750E-19 ort(H,U,f) = 0.295E-06 0.131E-05 0.338E-18
CGA:   8    -0.296787978415E+03   -0.73951E-05   -0.73117E-05  1216   0.459E-05 0.160E-05
 gam= 0.224 trial= 0.602  step= 0.741 mean= 0.602
 gam= 0.231 g(H,U,f)=  0.102E-05 0.423E-07 0.141E-19 ort(H,U,f) =-0.993E-07 0.156E-06 0.713E-19
CGA:   9    -0.296787980252E+03   -0.18366E-05   -0.18328E-05  1216   0.106E-05 0.565E-07
 gam= 0.231 trial= 0.609  step= 0.870 mean= 0.609
 final diagonalization
   4 F= -.29678798E+03 E0= -.29678798E+03  d E =-.796552E-02
 trial-energy change:   -0.007966  1 .order   -0.007964   -0.010413   -0.005515
 step:   0.4900(harm=  0.4900)  dis= 0.00955  next Energy=  -296.791083 (dE=-0.111E-01)
 bond charge predicted
 wavefunctions rotated
       N       E                     dE             d eps       ncg     rms          ort
 gam= 0.000 g(H,U,f)=  0.138E+00 0.206E-02 0.565E-18 ort(H,U,f) = 0.000E+00 0.000E+00 0.000E+00
SDA:   1    -0.296739215764E+03    0.48763E-01    0.00000E+00  1216   0.140E+00 0.000E+00
 gam= 0.000 trial= 0.622  step= 0.577 mean= 0.622
 gam= 0.234 g(H,U,f)=  0.318E-01 0.808E-03 0.318E-17 ort(H,U,f) = 0.353E-03-0.521E-03 0.241E-17
CGA:   2    -0.296779458809E+03   -0.40243E-01   -0.40241E-01  1216   0.326E-01-0.168E-03
 gam= 0.234 trial= 0.620  step= 0.565 mean= 0.620
 gam= 0.215 g(H,U,f)=  0.662E-02 0.391E-03 0.229E-17 ort(H,U,f) =-0.240E-03 0.229E-03 0.180E-17
CGA:   3    -0.296788669432E+03   -0.92106E-02   -0.92100E-02  1216   0.701E-02-0.111E-04
 gam= 0.215 trial= 0.617  step= 0.529 mean= 0.617
 gam= 0.177 g(H,U,f)=  0.114E-02 0.103E-03 0.125E-17 ort(H,U,f) =-0.184E-03 0.212E-03 0.280E-17
CGA:   4    -0.296790520580E+03   -0.18511E-02   -0.18525E-02  1216   0.124E-02 0.287E-04
 gam= 0.177 trial= 0.613  step= 0.589 mean= 0.613
 gam= 0.251 g(H,U,f)=  0.268E-03 0.429E-04 0.590E-18 ort(H,U,f) =-0.757E-04 0.882E-04 0.136E-17
CGA:   5    -0.296790886715E+03   -0.36614E-03   -0.36628E-03  1216   0.311E-03 0.124E-04
 gam= 0.251 trial= 0.611  step= 0.670 mean= 0.611
 gam= 0.289 g(H,U,f)=  0.773E-04 0.128E-04 0.448E-18 ort(H,U,f) =-0.345E-04 0.346E-04 0.896E-18
CGA:   6    -0.296790991945E+03   -0.10523E-03   -0.10523E-03  1216   0.901E-04 0.935E-07
 gam= 0.289 trial= 0.614  step= 0.756 mean= 0.614
 gam= 0.293 g(H,U,f)=  0.240E-04 0.232E-05 0.187E-18 ort(H,U,f) =-0.735E-05 0.860E-05 0.552E-18
CGA:   7    -0.296791026087E+03   -0.34142E-04   -0.34054E-04  1216   0.264E-04 0.125E-05
 gam= 0.293 trial= 0.621  step= 0.708 mean= 0.621
 gam= 0.226 g(H,U,f)=  0.567E-05 0.293E-06 0.406E-19 ort(H,U,f) = 0.120E-06 0.161E-05 0.187E-18
CGA:   8    -0.296791035624E+03   -0.95371E-05   -0.94619E-05  1216   0.596E-05 0.173E-05
 gam= 0.226 trial= 0.626  step= 0.740 mean= 0.626
 gam= 0.227 g(H,U,f)=  0.130E-05 0.513E-07 0.760E-20 ort(H,U,f) =-0.147E-06 0.183E-06 0.399E-19
CGA:   9    -0.296791037976E+03   -0.23520E-05   -0.23501E-05  1216   0.136E-05 0.359E-07
 gam= 0.227 trial= 0.631  step= 0.852 mean= 0.631
 final diagonalization
   5 F= -.29679104E+03 E0= -.29679104E+03  d E =-.110232E-01
 curvature:  -0.65 expect dE=-0.440E-01 dE for cont linesearch -0.529E-06
 trial: gam= 1.49977 g(F)=  0.612E-01 g(S)=  0.599E-02 ort =-0.312E-03 (trialstep = 0.101E+00)
 search vector abs. value=  0.338E+00
 bond charge predicted
 wavefunctions rotated
       N       E                     dE             d eps       ncg     rms          ort
 gam= 0.000 g(H,U,f)=  0.404E-01 0.608E-03 0.109E-17 ort(H,U,f) = 0.000E+00 0.000E+00 0.000E+00
SDA:   1    -0.296783513977E+03    0.75216E-02    0.00000E+00  1216   0.410E-01 0.000E+00
 gam= 0.000 trial= 0.642  step= 0.528 mean= 0.642
 gam= 0.188 g(H,U,f)=  0.750E-02 0.223E-03 0.729E-18 ort(H,U,f) = 0.616E-04-0.150E-03 0.129E-17
CGA:   2    -0.296794351336E+03   -0.10837E-01   -0.10833E-01  1216   0.772E-02-0.887E-04
 gam= 0.188 trial= 0.637  step= 0.561 mean= 0.637
 gam= 0.226 g(H,U,f)=  0.166E-02 0.815E-04 0.176E-17 ort(H,U,f) =-0.563E-04 0.509E-04 0.108E-17
CGA:   3    -0.296796513450E+03   -0.21621E-02   -0.21618E-02  1216   0.174E-02-0.540E-05
 gam= 0.226 trial= 0.633  step= 0.548 mean= 0.633
 gam= 0.204 g(H,U,f)=  0.325E-03 0.301E-04 0.707E-18 ort(H,U,f) =-0.472E-04 0.558E-04 0.145E-17
CGA:   4    -0.296796990187E+03   -0.47674E-03   -0.47711E-03  1216   0.355E-03 0.859E-05
 gam= 0.204 trial= 0.629  step= 0.595 mean= 0.629
 gam= 0.269 g(H,U,f)=  0.826E-04 0.130E-04 0.253E-18 ort(H,U,f) =-0.206E-04 0.267E-04 0.636E-18
CGA:   5    -0.296797096343E+03   -0.10616E-03   -0.10626E-03  1216   0.956E-04 0.605E-05
 gam= 0.269 trial= 0.627  step= 0.685 mean= 0.627
 gam= 0.300 g(H,U,f)=  0.252E-04 0.347E-05 0.179E-18 ort(H,U,f) =-0.939E-05 0.985E-05 0.376E-18
CGA:   6    -0.296797129643E+03   -0.33300E-04   -0.33287E-04  1216   0.286E-04 0.459E-06
 gam= 0.300 trial= 0.630  step= 0.748 mean= 0.630
 gam= 0.283 g(H,U,f)=  0.754E-05 0.573E-06 0.664E-19 ort(H,U,f) =-0.198E-05 0.248E-05 0.198E-18
CGA:   7    -0.296797140434E+03   -0.10792E-04   -0.10762E-04  1216   0.811E-05 0.500E-06
 gam= 0.283 trial= 0.636  step= 0.665 mean= 0.636
 gam= 0.210 g(H,U,f)=  0.162E-05 0.814E-07 0.150E-19 ort(H,U,f) = 0.387E-06 0.427E-06 0.636E-19
CGA:   8    -0.296797143188E+03   -0.27536E-05   -0.27420E-05  1216   0.170E-05 0.815E-06
 gam= 0.210 trial= 0.637  step= 0.734 mean= 0.637
 final diagonalization
   6 F= -.29679714E+03 E0= -.29679714E+03  d E =-.610521E-02
 ZBRENT: can't locate minimum, use default step
 trial-energy change:   -0.006105  1 .order   -0.006110   -0.006733   -0.005488
 step:   0.4037(harm=  0.5456)  dis= 0.01403  next Energy=  -296.809236 (dE=-0.182E-01)
 bond charge predicted
 wavefunctions rotated
       N       E                     dE             d eps       ncg     rms          ort
 gam= 0.000 g(H,U,f)=  0.365E+00 0.547E-02 0.870E-18 ort(H,U,f) = 0.000E+00 0.000E+00 0.000E+00
SDA:   1    -0.296685431081E+03    0.11171E+00    0.00000E+00  1216   0.370E+00 0.000E+00
 gam= 0.000 trial= 0.642  step= 0.526 mean= 0.642
 gam= 0.188 g(H,U,f)=  0.676E-01 0.195E-02 0.200E-17 ort(H,U,f) = 0.126E-02-0.135E-02 0.420E-17
CGA:   2    -0.296782763995E+03   -0.97333E-01   -0.97354E-01  1216   0.695E-01-0.935E-04
 gam= 0.188 trial= 0.636  step= 0.561 mean= 0.636
 gam= 0.226 g(H,U,f)=  0.150E-01 0.728E-03 0.130E-17 ort(H,U,f) =-0.483E-03 0.443E-03 0.763E-18
CGA:   3    -0.296802267065E+03   -0.19503E-01   -0.19500E-01  1216   0.157E-01-0.404E-04
 gam= 0.226 trial= 0.632  step= 0.549 mean= 0.632
 gam= 0.204 g(H,U,f)=  0.294E-02 0.271E-03 0.731E-18 ort(H,U,f) =-0.473E-03 0.499E-03 0.150E-17
CGA:   4    -0.296806588428E+03   -0.43214E-02   -0.43226E-02  1216   0.321E-02 0.260E-04
 gam= 0.204 trial= 0.628  step= 0.601 mean= 0.628
 gam= 0.274 g(H,U,f)=  0.764E-03 0.115E-03 0.253E-18 ort(H,U,f) =-0.219E-03 0.238E-03 0.648E-18
CGA:   5    -0.296807555681E+03   -0.96725E-03   -0.96751E-03  1216   0.880E-03 0.189E-04
 gam= 0.274 trial= 0.627  step= 0.679 mean= 0.627
 gam= 0.295 g(H,U,f)=  0.228E-03 0.307E-04 0.169E-18 ort(H,U,f) =-0.869E-04 0.884E-04 0.357E-18
CGA:   6    -0.296807856167E+03   -0.30049E-03   -0.30045E-03  1216   0.259E-03 0.150E-05
 gam= 0.295 trial= 0.630  step= 0.754 mean= 0.630
 gam= 0.288 g(H,U,f)=  0.696E-04 0.503E-05 0.715E-19 ort(H,U,f) =-0.205E-04 0.218E-04 0.211E-18
CGA:   7    -0.296807954141E+03   -0.97974E-04   -0.97892E-04  1216   0.746E-04 0.134E-05
 gam= 0.288 trial= 0.636  step= 0.706 mean= 0.636
 gam= 0.220 g(H,U,f)=  0.158E-04 0.586E-06 0.143E-19 ort(H,U,f) =-0.632E-06 0.327E-05 0.671E-19
CGA:   8    -0.296807980712E+03   -0.26571E-04   -0.26477E-04  1216   0.164E-04 0.264E-05
 gam= 0.220 trial= 0.639  step= 0.726 mean= 0.639
 gam= 0.220 g(H,U,f)=  0.349E-05 0.117E-06 0.269E-20 ort(H,U,f) =-0.319E-06 0.351E-06 0.138E-19
CGA:   9    -0.296807986885E+03   -0.61728E-05   -0.61710E-05  1216   0.361E-05 0.320E-07
 gam= 0.220 trial= 0.644  step= 0.817 mean= 0.644
 gam= 0.261 g(H,U,f)=  0.925E-06 0.173E-07 0.208E-21 ort(H,U,f) =-0.365E-06 0.337E-07 0.176E-20
CGA:  10    -0.296807988332E+03   -0.14479E-05   -0.14764E-05  1216   0.943E-06-0.331E-06
 gam= 0.261 trial= 0.652  step= 0.753 mean= 0.652
 final diagonalization
   7 F= -.29680799E+03 E0= -.29680799E+03  d E =-.169504E-01
 curvature:  -1.24 expect dE=-0.194E-01 dE for cont linesearch -0.107E-02
 ZBRENT: extrapolating
 opt :   0.5424  next Energy=  -296.809173 (dE=-0.181E-01)
 bond charge predicted
 wavefunctions rotated
       N       E                     dE             d eps       ncg     rms          ort
 gam= 0.000 g(H,U,f)=  0.765E-01 0.114E-02 0.342E-18 ort(H,U,f) = 0.000E+00 0.000E+00 0.000E+00
SDA:   1    -0.296783479024E+03    0.24508E-01    0.00000E+00  1216   0.777E-01 0.000E+00
 gam= 0.000 trial= 0.657  step= 0.525 mean= 0.657
 gam= 0.189 g(H,U,f)=  0.143E-01 0.413E-03 0.294E-18 ort(H,U,f) = 0.167E-03-0.279E-03 0.532E-18
CGA:   2    -0.296803890721E+03   -0.20412E-01   -0.20407E-01  1216   0.147E-01-0.111E-03
 gam= 0.189 trial= 0.651  step= 0.560 mean= 0.651
 gam= 0.226 g(H,U,f)=  0.316E-02 0.155E-03 0.549E-18 ort(H,U,f) =-0.105E-03 0.969E-04 0.337E-18
CGA:   3    -0.296807991309E+03   -0.41006E-02   -0.41000E-02  1216   0.332E-02-0.844E-05
 gam= 0.226 trial= 0.646  step= 0.548 mean= 0.646
 gam= 0.204 g(H,U,f)=  0.620E-03 0.571E-04 0.238E-18 ort(H,U,f) =-0.948E-04 0.106E-03 0.486E-18
CGA:   4    -0.296808899926E+03   -0.90862E-03   -0.90918E-03  1216   0.677E-03 0.113E-04
 gam= 0.204 trial= 0.641  step= 0.597 mean= 0.641
 gam= 0.271 g(H,U,f)=  0.159E-03 0.245E-04 0.861E-19 ort(H,U,f) =-0.423E-04 0.505E-04 0.217E-18
CGA:   5    -0.296809102648E+03   -0.20272E-03   -0.20290E-03  1216   0.183E-03 0.814E-05
 gam= 0.271 trial= 0.639  step= 0.681 mean= 0.639
 gam= 0.296 g(H,U,f)=  0.478E-04 0.656E-05 0.610E-19 ort(H,U,f) =-0.181E-04 0.188E-04 0.129E-18
CGA:   6    -0.296809165839E+03   -0.63192E-04   -0.63179E-04  1216   0.544E-04 0.632E-06
 gam= 0.296 trial= 0.641  step= 0.750 mean= 0.641
 gam= 0.286 g(H,U,f)=  0.145E-04 0.108E-05 0.237E-19 ort(H,U,f) =-0.398E-05 0.468E-05 0.705E-19
CGA:   7    -0.296809186342E+03   -0.20503E-04   -0.20465E-04  1216   0.155E-04 0.693E-06
 gam= 0.286 trial= 0.647  step= 0.681 mean= 0.647
 gam= 0.214 g(H,U,f)=  0.318E-05 0.143E-06 0.513E-20 ort(H,U,f) = 0.372E-06 0.772E-06 0.227E-19
CGA:   8    -0.296809191725E+03   -0.53833E-05   -0.53633E-05  1216   0.332E-05 0.114E-05
 gam= 0.214 trial= 0.648  step= 0.734 mean= 0.648
 gam= 0.236 g(H,U,f)=  0.757E-06 0.288E-07 0.105E-20 ort(H,U,f) =-0.666E-07 0.951E-07 0.495E-20
CGA:   9    -0.296809193037E+03   -0.13114E-05   -0.13101E-05  1216   0.786E-06 0.284E-07
 gam= 0.236 trial= 0.653  step= 0.889 mean= 0.653
 final diagonalization
   8 F= -.29680919E+03 E0= -.29680919E+03  d E =-.181551E-01
 curvature:  -1.37 expect dE=-0.280E-01 dE for cont linesearch -0.860E-07
 trial: gam= 0.30777 g(F)=  0.182E-01 g(S)=  0.226E-02 ort = 0.146E-03 (trialstep = 0.189E+00)
 search vector abs. value=  0.525E-01
 bond charge predicted
 wavefunctions rotated
       N       E                     dE             d eps       ncg     rms          ort
 gam= 0.000 g(H,U,f)=  0.330E-01 0.452E-03 0.113E-18 ort(H,U,f) = 0.000E+00 0.000E+00 0.000E+00
SDA:   1    -0.296800046696E+03    0.91450E-02    0.00000E+00  1216   0.334E-01 0.000E+00
 gam= 0.000 trial= 0.664  step= 0.594 mean= 0.664
 gam= 0.204 g(H,U,f)=  0.667E-02 0.139E-03 0.592E-19 ort(H,U,f) = 0.165E-03-0.207E-03 0.894E-19
CGA:   2    -0.296809971774E+03   -0.99251E-02   -0.99238E-02  1216   0.681E-02-0.418E-04
 gam= 0.204 trial= 0.661  step= 0.600 mean= 0.661
 gam= 0.201 g(H,U,f)=  0.131E-02 0.653E-04 0.176E-18 ort(H,U,f) = 0.257E-05-0.381E-05 0.126E-18
CGA:   3    -0.296812010344E+03   -0.20386E-02   -0.20385E-02  1216   0.137E-02-0.124E-05
 gam= 0.201 trial= 0.658  step= 0.521 mean= 0.658
 gam= 0.178 g(H,U,f)=  0.230E-03 0.131E-04 0.654E-19 ort(H,U,f) =-0.162E-04 0.213E-04 0.143E-18
CGA:   4    -0.296812366674E+03   -0.35633E-03   -0.35668E-03  1216   0.243E-03 0.504E-05
 gam= 0.178 trial= 0.651  step= 0.606 mean= 0.651
 gam= 0.221 g(H,U,f)=  0.483E-04 0.547E-05 0.290E-19 ort(H,U,f) =-0.865E-05 0.108E-04 0.680E-19
CGA:   5    -0.296812440590E+03   -0.73916E-04   -0.73965E-04  1216   0.538E-04 0.216E-05
 gam= 0.221 trial= 0.649  step= 0.703 mean= 0.649
 gam= 0.309 g(H,U,f)=  0.147E-04 0.188E-05 0.250E-19 ort(H,U,f) =-0.451E-05 0.440E-05 0.464E-19
CGA:   6    -0.296812459659E+03   -0.19069E-04   -0.19072E-04  1216   0.166E-04-0.109E-06
 gam= 0.309 trial= 0.651  step= 0.742 mean= 0.651
 gam= 0.302 g(H,U,f)=  0.467E-05 0.347E-06 0.941E-20 ort(H,U,f) =-0.786E-06 0.123E-05 0.279E-19
CGA:   7    -0.296812465824E+03   -0.61645E-05   -0.61441E-05  1216   0.501E-05 0.442E-06
 gam= 0.302 trial= 0.656  step= 0.705 mean= 0.656
 gam= 0.220 g(H,U,f)=  0.105E-05 0.504E-07 0.208E-20 ort(H,U,f) = 0.142E-06 0.250E-06 0.949E-20
CGA:   8    -0.296812467649E+03   -0.18247E-05   -0.18152E-05  1216   0.110E-05 0.392E-06
 gam= 0.220 trial= 0.658  step= 0.748 mean= 0.658
 final diagonalization
   9 F= -.29681247E+03 E0= -.29681247E+03  d E =-.327461E-02
 trial-energy change:   -0.003275  1 .order   -0.003283   -0.003879   -0.002687
 step:   0.6158(harm=  0.6158)  dis= 0.00888  next Energy=  -296.815504 (dE=-0.631E-02)
 bond charge predicted
 wavefunctions rotated
       N       E                     dE             d eps       ncg     rms          ort
 gam= 0.000 g(H,U,f)=  0.168E+00 0.230E-02 0.604E-18 ort(H,U,f) = 0.000E+00 0.000E+00 0.000E+00
SDA:   1    -0.296752302660E+03    0.60163E-01    0.00000E+00  1216   0.170E+00 0.000E+00
 gam= 0.000 trial= 0.663  step= 0.593 mean= 0.663
 gam= 0.204 g(H,U,f)=  0.339E-01 0.703E-03 0.318E-18 ort(H,U,f) = 0.999E-03-0.106E-02 0.543E-18
CGA:   2    -0.296802743101E+03   -0.50440E-01   -0.50441E-01  1216   0.346E-01-0.582E-04
 gam= 0.204 trial= 0.659  step= 0.600 mean= 0.659
 gam= 0.202 g(H,U,f)=  0.664E-02 0.333E-03 0.835E-18 ort(H,U,f) = 0.138E-04-0.221E-04 0.577E-18
CGA:   3    -0.296813125130E+03   -0.10382E-01   -0.10382E-01  1216   0.698E-02-0.832E-05
 gam= 0.202 trial= 0.656  step= 0.522 mean= 0.656
 gam= 0.178 g(H,U,f)=  0.117E-02 0.667E-04 0.389E-18 ort(H,U,f) =-0.960E-04 0.107E-03 0.856E-18
CGA:   4    -0.296814942990E+03   -0.18179E-02   -0.18187E-02  1216   0.124E-02 0.112E-04
 gam= 0.178 trial= 0.650  step= 0.609 mean= 0.650
 gam= 0.222 g(H,U,f)=  0.248E-03 0.276E-04 0.189E-18 ort(H,U,f) =-0.497E-04 0.546E-04 0.447E-18
CGA:   5    -0.296815321173E+03   -0.37818E-03   -0.37828E-03  1216   0.276E-03 0.495E-05
 gam= 0.222 trial= 0.648  step= 0.700 mean= 0.648
 gam= 0.305 g(H,U,f)=  0.748E-04 0.944E-05 0.180E-18 ort(H,U,f) =-0.225E-04 0.223E-04 0.334E-18
CGA:   6    -0.296815418013E+03   -0.96840E-04   -0.96846E-04  1216   0.842E-04-0.209E-06
 gam= 0.305 trial= 0.650  step= 0.754 mean= 0.650
 gam= 0.310 g(H,U,f)=  0.244E-04 0.172E-05 0.751E-19 ort(H,U,f) =-0.511E-05 0.609E-05 0.224E-18
CGA:   7    -0.296815449765E+03   -0.31752E-04   -0.31701E-04  1216   0.261E-04 0.978E-06
 gam= 0.310 trial= 0.655  step= 0.729 mean= 0.655
 gam= 0.225 g(H,U,f)=  0.565E-05 0.224E-06 0.157E-19 ort(H,U,f) =-0.197E-06 0.113E-05 0.776E-19
CGA:   8    -0.296815459424E+03   -0.96597E-05   -0.96258E-05  1216   0.588E-05 0.930E-06
 gam= 0.225 trial= 0.659  step= 0.738 mean= 0.659
 gam= 0.209 g(H,U,f)=  0.120E-05 0.300E-07 0.310E-20 ort(H,U,f) =-0.857E-07 0.122E-06 0.169E-19
CGA:   9    -0.296815461671E+03   -0.22462E-05   -0.22449E-05  1216   0.123E-05 0.361E-07
 gam= 0.209 trial= 0.663  step= 0.809 mean= 0.663
 final diagonalization
  10 F= -.29681546E+03 E0= -.29681546E+03  d E =-.626863E-02
 curvature:  -0.79 expect dE=-0.300E-01 dE for cont linesearch -0.197E-06
 trial: gam= 1.86936 g(F)=  0.362E-01 g(S)=  0.175E-02 ort =-0.114E-03 (trialstep = 0.652E-01)
 search vector abs. value=  0.221E+00
 bond charge predicted
 wavefunctions rotated
       N       E                     dE             d eps       ncg     rms          ort
 gam= 0.000 g(H,U,f)=  0.118E-01 0.178E-03 0.813E-18 ort(H,U,f) = 0.000E+00 0.000E+00 0.000E+00
SDA:   1    -0.296813665009E+03    0.17944E-02    0.00000E+00  1216   0.120E-01 0.000E+00
 gam= 0.000 trial= 0.670  step= 0.568 mean= 0.670
 gam= 0.160 g(H,U,f)=  0.188E-02 0.355E-04 0.340E-19 ort(H,U,f) = 0.422E-04-0.646E-04 0.187E-18
CGA:   2    -0.296817061758E+03   -0.33967E-02   -0.33957E-02  1216   0.192E-02-0.224E-04
 gam= 0.160 trial= 0.665  step= 0.640 mean= 0.665
 gam= 0.190 g(H,U,f)=  0.349E-03 0.148E-04 0.762E-18 ort(H,U,f) =-0.106E-04 0.960E-05 0.291E-18
CGA:   3    -0.296817674174E+03   -0.61242E-03   -0.61240E-03  1216   0.364E-03-0.979E-06
 gam= 0.190 trial= 0.664  step= 0.542 mean= 0.664
 gam= 0.215 g(H,U,f)=  0.725E-04 0.564E-05 0.142E-18 ort(H,U,f) =-0.736E-05 0.925E-05 0.386E-18
CGA:   4    -0.296817772570E+03   -0.98396E-04   -0.98512E-04  1216   0.781E-04 0.189E-05
 gam= 0.215 trial= 0.658  step= 0.584 mean= 0.658
 gam= 0.261 g(H,U,f)=  0.182E-04 0.224E-05 0.744E-19 ort(H,U,f) =-0.355E-05 0.476E-05 0.173E-18
CGA:   5    -0.296817795443E+03   -0.22873E-04   -0.22918E-04  1216   0.204E-04 0.121E-05
 gam= 0.261 trial= 0.654  step= 0.710 mean= 0.654
 gam= 0.328 g(H,U,f)=  0.609E-05 0.599E-06 0.704E-19 ort(H,U,f) =-0.195E-05 0.175E-05 0.127E-18
CGA:   6    -0.296817802789E+03   -0.73459E-05   -0.73516E-05  1216   0.669E-05-0.194E-06
 gam= 0.328 trial= 0.657  step= 0.719 mean= 0.657
 gam= 0.290 g(H,U,f)=  0.184E-05 0.986E-07 0.204E-19 ort(H,U,f) =-0.281E-06 0.434E-06 0.669E-19
CGA:   7    -0.296817805173E+03   -0.23844E-05   -0.23795E-05  1216   0.194E-05 0.153E-06
 gam= 0.290 trial= 0.660  step= 0.659 mean= 0.660
 gam= 0.208 g(H,U,f)=  0.390E-06 0.136E-07 0.573E-20 ort(H,U,f) = 0.116E-06 0.728E-07 0.230E-19
CGA:   8    -0.296817805827E+03   -0.65373E-06   -0.65409E-06  1216   0.403E-06 0.189E-06
 gam= 0.208 trial= 0.660  step= 0.747 mean= 0.660
 final diagonalization
  11 F= -.29681781E+03 E0= -.29681781E+03  d E =-.234416E-02
 ZBRENT: can't locate minimum, use default step
 trial-energy change:   -0.002344  1 .order   -0.002347   -0.002462   -0.002231
 step:   0.2609(harm=  0.6950)  dis= 0.00790  next Energy=  -296.828582 (dE=-0.131E-01)
 bond charge predicted
 wavefunctions rotated
       N       E                     dE             d eps       ncg     rms          ort
 gam= 0.000 g(H,U,f)=  0.106E+00 0.160E-02 0.777E-17 ort(H,U,f) = 0.000E+00 0.000E+00 0.000E+00
SDA:   1    -0.296786184460E+03    0.31621E-01    0.00000E+00  1216   0.108E+00 0.000E+00
 gam= 0.000 trial= 0.664  step= 0.567 mean= 0.664
 gam= 0.160 g(H,U,f)=  0.169E-01 0.316E-03 0.181E-18 ort(H,U,f) = 0.533E-03-0.583E-03 0.170E-17
CGA:   2    -0.296816736181E+03   -0.30552E-01   -0.30551E-01  1216   0.172E-01-0.504E-04
 gam= 0.160 trial= 0.659  step= 0.641 mean= 0.659
 gam= 0.190 g(H,U,f)=  0.314E-02 0.133E-03 0.744E-17 ort(H,U,f) =-0.923E-04 0.856E-04 0.238E-17
CGA:   3    -0.296822254701E+03   -0.55185E-02   -0.55184E-02  1216   0.327E-02-0.676E-05
 gam= 0.190 trial= 0.659  step= 0.544 mean= 0.659
 gam= 0.215 g(H,U,f)=  0.652E-03 0.510E-04 0.149E-17 ort(H,U,f) =-0.777E-04 0.834E-04 0.416E-17
CGA:   4    -0.296823144597E+03   -0.88990E-03   -0.89024E-03  1216   0.703E-03 0.569E-05
 gam= 0.215 trial= 0.653  step= 0.592 mean= 0.653
 gam= 0.264 g(H,U,f)=  0.166E-03 0.199E-04 0.761E-18 ort(H,U,f) =-0.388E-04 0.426E-04 0.179E-17
CGA:   5    -0.296823352949E+03   -0.20835E-03   -0.20847E-03  1216   0.186E-03 0.377E-05
 gam= 0.264 trial= 0.650  step= 0.699 mean= 0.650
 gam= 0.318 g(H,U,f)=  0.538E-04 0.538E-05 0.755E-18 ort(H,U,f) =-0.164E-04 0.158E-04 0.135E-17
CGA:   6    -0.296823418196E+03   -0.65246E-04   -0.65261E-04  1216   0.591E-04-0.594E-06
 gam= 0.318 trial= 0.652  step= 0.730 mean= 0.652
 gam= 0.301 g(H,U,f)=  0.169E-04 0.900E-06 0.230E-18 ort(H,U,f) =-0.345E-05 0.386E-05 0.739E-18
CGA:   7    -0.296823439728E+03   -0.21532E-04   -0.21516E-04  1216   0.178E-04 0.411E-06
 gam= 0.301 trial= 0.656  step= 0.696 mean= 0.656
 gam= 0.215 g(H,U,f)=  0.373E-05 0.105E-06 0.589E-19 ort(H,U,f) = 0.430E-07 0.570E-06 0.251E-18
CGA:   8    -0.296823445974E+03   -0.62461E-05   -0.62338E-05  1216   0.383E-05 0.613E-06
 gam= 0.215 trial= 0.658  step= 0.737 mean= 0.658
 gam= 0.220 g(H,U,f)=  0.830E-06 0.145E-07 0.987E-20 ort(H,U,f) =-0.437E-07 0.595E-07 0.508E-19
CGA:   9    -0.296823447436E+03   -0.14621E-05   -0.14615E-05  1216   0.844E-06 0.159E-07
 gam= 0.220 trial= 0.662  step= 0.798 mean= 0.662
 final diagonalization
  12 F= -.29682345E+03 E0= -.29682345E+03  d E =-.798577E-02
 curvature:  -1.07 expect dE=-0.196E-01 dE for cont linesearch -0.268E-02
 ZBRENT: increasing intervall
 opt :   0.6522  next Energy=  -296.828497 (dE=-0.130E-01)
 bond charge predicted
 wavefunctions rotated
       N       E                     dE             d eps       ncg     rms          ort
 gam= 0.000 g(H,U,f)=  0.425E+00 0.642E-02 0.928E-17 ort(H,U,f) = 0.000E+00 0.000E+00 0.000E+00
SDA:   1    -0.296679349569E+03    0.14410E+00    0.00000E+00  1216   0.432E+00 0.000E+00
 gam= 0.000 trial= 0.669  step= 0.566 mean= 0.669
 gam= 0.160 g(H,U,f)=  0.677E-01 0.126E-02 0.471E-22 ort(H,U,f) = 0.236E-02-0.235E-02 0.511E-19
CGA:   2    -0.296801592829E+03   -0.12224E+00   -0.12226E+00  1216   0.690E-01 0.120E-04
 gam= 0.160 trial= 0.664  step= 0.641 mean= 0.664
 gam= 0.190 g(H,U,f)=  0.126E-01 0.532E-03 0.115E-16 ort(H,U,f) =-0.372E-03 0.342E-03 0.248E-17
CGA:   3    -0.296823714651E+03   -0.22122E-01   -0.22121E-01  1216   0.131E-01-0.300E-04
 gam= 0.190 trial= 0.663  step= 0.544 mean= 0.663
 gam= 0.217 g(H,U,f)=  0.264E-02 0.205E-03 0.261E-17 ort(H,U,f) =-0.324E-03 0.336E-03 0.750E-17
CGA:   4    -0.296827277414E+03   -0.35628E-02   -0.35636E-02  1216   0.284E-02 0.114E-04
 gam= 0.217 trial= 0.657  step= 0.590 mean= 0.657
 gam= 0.264 g(H,U,f)=  0.672E-03 0.801E-04 0.112E-17 ort(H,U,f) =-0.165E-03 0.172E-03 0.274E-17
CGA:   5    -0.296828116306E+03   -0.83889E-03   -0.83914E-03  1216   0.752E-03 0.764E-05
 gam= 0.264 trial= 0.653  step= 0.696 mean= 0.653
 gam= 0.315 g(H,U,f)=  0.215E-03 0.218E-04 0.121E-17 ort(H,U,f) =-0.650E-04 0.638E-04 0.208E-17
CGA:   6    -0.296828378662E+03   -0.26236E-03   -0.26238E-03  1216   0.237E-03-0.117E-05
 gam= 0.315 trial= 0.655  step= 0.735 mean= 0.655
 gam= 0.304 g(H,U,f)=  0.684E-04 0.367E-05 0.387E-18 ort(H,U,f) =-0.149E-04 0.156E-04 0.122E-17
CGA:   7    -0.296828465633E+03   -0.86971E-04   -0.86942E-04  1216   0.721E-04 0.726E-06
 gam= 0.304 trial= 0.659  step= 0.707 mean= 0.659
 gam= 0.219 g(H,U,f)=  0.154E-04 0.409E-06 0.994E-19 ort(H,U,f) =-0.935E-06 0.220E-05 0.423E-18
CGA:   8    -0.296828491217E+03   -0.25584E-04   -0.25554E-04  1216   0.158E-04 0.127E-05
 gam= 0.219 trial= 0.662  step= 0.731 mean= 0.662
 gam= 0.213 g(H,U,f)=  0.332E-05 0.533E-07 0.155E-19 ort(H,U,f) =-0.167E-06 0.210E-06 0.840E-19
CGA:   9    -0.296828497099E+03   -0.58826E-05   -0.58813E-05  1216   0.337E-05 0.426E-07
 gam= 0.213 trial= 0.665  step= 0.779 mean= 0.665
 gam= 0.245 g(H,U,f)=  0.817E-06 0.105E-07 0.789E-21 ort(H,U,f) =-0.130E-06 0.328E-08 0.829E-20
CGA:  10    -0.296828498410E+03   -0.13104E-05   -0.13173E-05  1216   0.828E-06-0.127E-06
 gam= 0.245 trial= 0.671  step= 0.784 mean= 0.671
 final diagonalization
  13 F= -.29682850E+03 E0= -.29682850E+03  d E =-.130367E-01
 curvature:  -2.01 expect dE=-0.416E-01 dE for cont linesearch -0.472E-04
 trial: gam= 0.46380 g(F)=  0.181E-01 g(S)=  0.254E-02 ort = 0.228E-02 (trialstep = 0.183E+00)
 search vector abs. value=  0.703E-01
 bond charge predicted
 wavefunctions rotated
       N       E                     dE             d eps       ncg     rms          ort
 gam= 0.000 g(H,U,f)=  0.341E-01 0.407E-03 0.883E-19 ort(H,U,f) = 0.000E+00 0.000E+00 0.000E+00
SDA:   1    -0.296818121053E+03    0.10376E-01    0.00000E+00  1216   0.345E-01 0.000E+00
 gam= 0.000 trial= 0.677  step= 0.610 mean= 0.677
 gam= 0.210 g(H,U,f)=  0.710E-02 0.151E-03 0.328E-18 ort(H,U,f) = 0.224E-03-0.207E-03-0.187E-18
CGA:   2    -0.296828643332E+03   -0.10522E-01   -0.10523E-01  1216   0.725E-02 0.173E-04
 gam= 0.210 trial= 0.673  step= 0.597 mean= 0.673
 gam= 0.217 g(H,U,f)=  0.151E-02 0.616E-04 0.367E-18 ort(H,U,f) =-0.657E-04 0.550E-04 0.335E-18
CGA:   3    -0.296830809259E+03   -0.21659E-02   -0.21655E-02  1216   0.157E-02-0.107E-04
 gam= 0.217 trial= 0.669  step= 0.499 mean= 0.669
 gam= 0.193 g(H,U,f)=  0.281E-03 0.227E-04 0.964E-21 ort(H,U,f) =-0.430E-04 0.432E-04 0.231E-19
CGA:   4    -0.296831201035E+03   -0.39178E-03   -0.39178E-03  1216   0.304E-03 0.185E-06
 gam= 0.193 trial= 0.661  step= 0.606 mean= 0.661
 gam= 0.251 g(H,U,f)=  0.667E-04 0.936E-05 0.216E-19 ort(H,U,f) =-0.194E-04 0.195E-04 0.283E-19
CGA:   5    -0.296831293027E+03   -0.91992E-04   -0.91993E-04  1216   0.761E-04 0.713E-07
 gam= 0.251 trial= 0.658  step= 0.715 mean= 0.658
 gam= 0.321 g(H,U,f)=  0.223E-04 0.209E-05 0.295E-19 ort(H,U,f) =-0.680E-05 0.659E-05 0.371E-19
CGA:   6    -0.296831320243E+03   -0.27216E-04   -0.27222E-04  1216   0.244E-04-0.210E-06
 gam= 0.321 trial= 0.661  step= 0.770 mean= 0.661
 gam= 0.297 g(H,U,f)=  0.699E-05 0.263E-06 0.583E-21 ort(H,U,f) =-0.171E-05 0.143E-05 0.646E-20
CGA:   7    -0.296831329614E+03   -0.93710E-05   -0.93858E-05  1216   0.726E-05-0.274E-06
 gam= 0.297 trial= 0.666  step= 0.712 mean= 0.666
 gam= 0.210 g(H,U,f)=  0.150E-05 0.262E-07 0.472E-21 ort(H,U,f) =-0.184E-06 0.183E-06 0.248E-20
CGA:   8    -0.296831332169E+03   -0.25547E-05   -0.25548E-05  1216   0.153E-05-0.864E-09
 gam= 0.210 trial= 0.669  step= 0.693 mean= 0.669
 final diagonalization
  14 F= -.29683133E+03 E0= -.29683133E+03  d E =-.283376E-02
 trial-energy change:   -0.002834  1 .order   -0.002834   -0.003966   -0.001701
 step:   0.3198(harm=  0.3198)  dis= 0.00520  next Energy=  -296.831971 (dE=-0.347E-02)
 bond charge predicted
 wavefunctions rotated
       N       E                     dE             d eps       ncg     rms          ort
 gam= 0.000 g(H,U,f)=  0.192E-01 0.229E-03 0.113E-18 ort(H,U,f) = 0.000E+00 0.000E+00 0.000E+00
SDA:   1    -0.296824511126E+03    0.68185E-02    0.00000E+00  1216   0.195E-01 0.000E+00
 gam= 0.000 trial= 0.670  step= 0.610 mean= 0.670
 gam= 0.210 g(H,U,f)=  0.400E-02 0.852E-04 0.394E-18 ort(H,U,f) = 0.130E-03-0.117E-03-0.226E-18
CGA:   2    -0.296830448334E+03   -0.59372E-02   -0.59376E-02  1216   0.408E-02 0.132E-04
 gam= 0.210 trial= 0.667  step= 0.598 mean= 0.667
 gam= 0.217 g(H,U,f)=  0.850E-03 0.346E-04 0.425E-18 ort(H,U,f) =-0.390E-04 0.311E-04 0.388E-18
CGA:   3    -0.296831670352E+03   -0.12220E-02   -0.12218E-02  1216   0.884E-03-0.793E-05
 gam= 0.217 trial= 0.664  step= 0.500 mean= 0.664
 gam= 0.191 g(H,U,f)=  0.157E-03 0.128E-04 0.597E-21 ort(H,U,f) =-0.241E-04 0.243E-04 0.197E-19
CGA:   4    -0.296831890915E+03   -0.22056E-03   -0.22057E-03  1216   0.169E-03 0.197E-06
 gam= 0.191 trial= 0.655  step= 0.608 mean= 0.655
 gam= 0.253 g(H,U,f)=  0.376E-04 0.528E-05 0.245E-19 ort(H,U,f) =-0.109E-04 0.110E-04 0.305E-19
CGA:   5    -0.296831942406E+03   -0.51491E-04   -0.51491E-04  1216   0.429E-04 0.428E-07
 gam= 0.253 trial= 0.653  step= 0.717 mean= 0.653
 gam= 0.323 g(H,U,f)=  0.127E-04 0.116E-05 0.323E-19 ort(H,U,f) =-0.386E-05 0.370E-05 0.407E-19
CGA:   6    -0.296831957773E+03   -0.15367E-04   -0.15373E-04  1216   0.138E-04-0.158E-06
 gam= 0.323 trial= 0.656  step= 0.772 mean= 0.656
 gam= 0.298 g(H,U,f)=  0.399E-05 0.142E-06 0.591E-21 ort(H,U,f) =-0.997E-06 0.790E-06 0.681E-20
CGA:   7    -0.296831963088E+03   -0.53149E-05   -0.53270E-05  1216   0.413E-05-0.207E-06
 gam= 0.298 trial= 0.662  step= 0.711 mean= 0.662
 gam= 0.209 g(H,U,f)=  0.847E-06 0.138E-07 0.120E-21 ort(H,U,f) =-0.979E-07 0.980E-07 0.657E-21
CGA:   8    -0.296831964533E+03   -0.14455E-05   -0.14455E-05  1216   0.861E-06 0.660E-10
 gam= 0.209 trial= 0.664  step= 0.690 mean= 0.664
 final diagonalization
  15 F= -.29683196E+03 E0= -.29683196E+03  d E =-.346612E-02
 curvature:  -0.52 expect dE=-0.448E-02 dE for cont linesearch -0.378E-07
 trial: gam= 0.48863 g(F)=  0.557E-02 g(S)=  0.308E-02 ort =-0.717E-04 (trialstep = 0.210E+00)
 search vector abs. value=  0.254E-01
 bond charge predicted
 wavefunctions rotated
       N       E                     dE             d eps       ncg     rms          ort
 gam= 0.000 g(H,U,f)=  0.164E-01 0.230E-03 0.415E-20 ort(H,U,f) = 0.000E+00 0.000E+00 0.000E+00
SDA:   1    -0.296827606186E+03    0.43569E-02    0.00000E+00  1216   0.167E-01 0.000E+00
 gam= 0.000 trial= 0.666  step= 0.570 mean= 0.666
 gam= 0.174 g(H,U,f)=  0.284E-02 0.548E-04 0.410E-16 ort(H,U,f) = 0.113E-03-0.557E-04 0.437E-18
CGA:   2    -0.296832354813E+03   -0.47486E-02   -0.47513E-02  1216   0.289E-02 0.575E-04
 gam= 0.174 trial= 0.661  step= 0.613 mean= 0.661
 gam= 0.233 g(H,U,f)=  0.647E-03 0.273E-04 0.334E-16 ort(H,U,f) =-0.290E-04 0.211E-04 0.405E-16
CGA:   3    -0.296833245509E+03   -0.89070E-03   -0.89051E-03  1216   0.675E-03-0.785E-05
 gam= 0.233 trial= 0.659  step= 0.508 mean= 0.659
 gam= 0.207 g(H,U,f)=  0.129E-03 0.103E-04 0.838E-17 ort(H,U,f) =-0.217E-04 0.190E-04 0.208E-16
CGA:   4    -0.296833416534E+03   -0.17102E-03   -0.17082E-03  1216   0.140E-03-0.270E-05
 gam= 0.207 trial= 0.651  step= 0.610 mean= 0.651
 gam= 0.252 g(H,U,f)=  0.315E-04 0.364E-05 0.525E-17 ort(H,U,f) =-0.985E-05 0.817E-05 0.107E-16
CGA:   5    -0.296833458987E+03   -0.42453E-04   -0.42419E-04  1216   0.351E-04-0.168E-05
 gam= 0.252 trial= 0.649  step= 0.708 mean= 0.649
 gam= 0.316 g(H,U,f)=  0.101E-04 0.984E-06 0.274E-17 ort(H,U,f) =-0.360E-05 0.286E-05 0.615E-17
CGA:   6    -0.296833471259E+03   -0.12272E-04   -0.12293E-04  1216   0.111E-04-0.735E-06
 gam= 0.316 trial= 0.652  step= 0.762 mean= 0.652
 gam= 0.316 g(H,U,f)=  0.337E-05 0.145E-06 0.445E-18 ort(H,U,f) =-0.126E-05 0.658E-06 0.203E-17
CGA:   7    -0.296833475374E+03   -0.41155E-05   -0.41483E-05  1216   0.351E-05-0.598E-06
 gam= 0.316 trial= 0.657  step= 0.737 mean= 0.657
 gam= 0.216 g(H,U,f)=  0.745E-06 0.132E-07 0.567E-19 ort(H,U,f) =-0.238E-06 0.577E-07 0.423E-18
CGA:   8    -0.296833476592E+03   -0.12178E-05   -0.12251E-05  1216   0.758E-06-0.180E-06
 gam= 0.216 trial= 0.661  step= 0.651 mean= 0.661
 final diagonalization
  16 F= -.29683348E+03 E0= -.29683348E+03  d E =-.151206E-02
 trial-energy change:   -0.001512  1 .order   -0.001514   -0.001811   -0.001217
 step:   0.6409(harm=  0.6409)  dis= 0.00636  next Energy=  -296.834727 (dE=-0.276E-02)
 bond charge predicted
 wavefunctions rotated
       N       E                     dE             d eps       ncg     rms          ort
 gam= 0.000 g(H,U,f)=  0.692E-01 0.968E-03 0.101E-22 ort(H,U,f) = 0.000E+00 0.000E+00 0.000E+00
SDA:   1    -0.296809988800E+03    0.23487E-01    0.00000E+00  1216   0.701E-01 0.000E+00
 gam= 0.000 trial= 0.661  step= 0.571 mean= 0.661
 gam= 0.174 g(H,U,f)=  0.120E-01 0.235E-03 0.171E-14 ort(H,U,f) = 0.353E-03-0.236E-03-0.911E-19
CGA:   2    -0.296830012196E+03   -0.20023E-01   -0.20028E-01  1216   0.122E-01 0.116E-03
 gam= 0.174 trial= 0.656  step= 0.611 mean= 0.656
 gam= 0.232 g(H,U,f)=  0.272E-02 0.116E-03 0.144E-14 ort(H,U,f) =-0.108E-03 0.908E-04 0.175E-14
CGA:   3    -0.296833754991E+03   -0.37428E-02   -0.37424E-02  1216   0.283E-02-0.167E-04
 gam= 0.232 trial= 0.654  step= 0.507 mean= 0.654
 gam= 0.207 g(H,U,f)=  0.542E-03 0.436E-04 0.314E-15 ort(H,U,f) =-0.867E-04 0.807E-04 0.776E-15
CGA:   4    -0.296834473622E+03   -0.71863E-03   -0.71816E-03  1216   0.586E-03-0.597E-05
 gam= 0.207 trial= 0.647  step= 0.608 mean= 0.647
 gam= 0.250 g(H,U,f)=  0.131E-03 0.155E-04 0.186E-15 ort(H,U,f) =-0.382E-04 0.348E-04 0.379E-15
CGA:   5    -0.296834651481E+03   -0.17786E-03   -0.17779E-03  1216   0.146E-03-0.341E-05
 gam= 0.250 trial= 0.645  step= 0.704 mean= 0.645
 gam= 0.313 g(H,U,f)=  0.416E-04 0.430E-05 0.932E-16 ort(H,U,f) =-0.138E-04 0.123E-04 0.207E-15
CGA:   6    -0.296834702648E+03   -0.51168E-04   -0.51212E-04  1216   0.459E-04-0.148E-05
 gam= 0.313 trial= 0.648  step= 0.749 mean= 0.648
 gam= 0.306 g(H,U,f)=  0.133E-04 0.682E-06 0.156E-16 ort(H,U,f) =-0.423E-05 0.300E-05 0.673E-16
CGA:   7    -0.296834719585E+03   -0.16936E-04   -0.16999E-04  1216   0.140E-04-0.124E-05
 gam= 0.306 trial= 0.653  step= 0.734 mean= 0.653
 gam= 0.215 g(H,U,f)=  0.295E-05 0.664E-07 0.230E-17 ort(H,U,f) =-0.736E-06 0.335E-06 0.150E-16
CGA:   8    -0.296834724571E+03   -0.49860E-05   -0.50019E-05  1216   0.302E-05-0.401E-06
 gam= 0.215 trial= 0.657  step= 0.683 mean= 0.657
 final diagonalization
  17 F= -.29683472E+03 E0= -.29683472E+03  d E =-.276004E-02
 curvature:  -0.94 expect dE=-0.133E-01 dE for cont linesearch -0.150E-07
 trial: gam= 1.55784 g(F)=  0.123E-01 g(S)=  0.176E-02 ort = 0.201E-04 (trialstep = 0.993E-01)
 search vector abs. value=  0.757E-01
 bond charge predicted
 wavefunctions rotated
       N       E                     dE             d eps       ncg     rms          ort
 gam= 0.000 g(H,U,f)=  0.967E-02 0.149E-03 0.116E-49 ort(H,U,f) = 0.000E+00 0.000E+00 0.000E+00
SDA:   1    -0.296832911893E+03    0.18077E-02    0.00000E+00  1216   0.982E-02 0.000E+00
 gam= 0.000 trial= 0.658  step= 0.527 mean= 0.658
 gam= 0.154 g(H,U,f)=  0.146E-02 0.539E-04-0.294E-30 ort(H,U,f) = 0.761E-04-0.238E-04-0.199E-31
CGA:   2    -0.296835493713E+03   -0.25818E-02   -0.25852E-02  1216   0.152E-02 0.523E-04
 gam= 0.154 trial= 0.652  step= 0.563 mean= 0.652
 gam= 0.247 g(H,U,f)=  0.354E-03 0.209E-04-0.343E-30 ort(H,U,f) =-0.230E-04 0.206E-04-0.349E-30
CGA:   3    -0.296835922925E+03   -0.42921E-03   -0.42911E-03  1216   0.375E-03-0.245E-05
 gam= 0.247 trial= 0.647  step= 0.532 mean= 0.647
 gam= 0.212 g(H,U,f)=  0.707E-04 0.860E-05-0.224E-51 ort(H,U,f) =-0.197E-04 0.165E-04 0.000E+00
CGA:   4    -0.296836022628E+03   -0.99703E-04   -0.99515E-04  1216   0.793E-04-0.323E-05
 gam= 0.212 trial= 0.641  step= 0.671 mean= 0.641
 gam= 0.316 g(H,U,f)=  0.220E-04 0.303E-05-0.306E-31 ort(H,U,f) =-0.923E-05 0.700E-05-0.701E-31
CGA:   5    -0.296836048991E+03   -0.26364E-04   -0.26397E-04  1216   0.250E-04-0.223E-05
 gam= 0.316 trial= 0.643  step= 0.701 mean= 0.643
 gam= 0.320 g(H,U,f)=  0.745E-05 0.566E-06-0.122E-52 ort(H,U,f) =-0.301E-05 0.215E-05 0.000E+00
CGA:   6    -0.296836057492E+03   -0.85009E-05   -0.85260E-05  1216   0.801E-05-0.863E-06
 gam= 0.320 trial= 0.646  step= 0.750 mean= 0.646
 gam= 0.272 g(H,U,f)=  0.212E-05 0.622E-07 0.339E-53 ort(H,U,f) =-0.963E-06 0.342E-06 0.000E+00
CGA:   7    -0.296836060361E+03   -0.28692E-05   -0.29016E-05  1216   0.218E-05-0.621E-06
 gam= 0.272 trial= 0.651  step= 0.736 mean= 0.651
 gam= 0.209 g(H,U,f)=  0.446E-06 0.902E-08 0.253E-53 ort(H,U,f) =-0.134E-06 0.882E-08 0.000E+00
CGA:   8    -0.296836061095E+03   -0.73402E-06   -0.73907E-06  1216   0.455E-06-0.125E-06
 gam= 0.209 trial= 0.655  step= 0.580 mean= 0.655
 final diagonalization
  18 F= -.29683606E+03 E0= -.29683606E+03  d E =-.133652E-02
 ZBRENT: can't locate minimum, use default step
 trial-energy change:   -0.001337  1 .order   -0.001334   -0.001399   -0.001268
 step:   0.3972(harm=  1.0615)  dis= 0.00681  next Energy=  -296.842203 (dE=-0.748E-02)
 bond charge predicted
 wavefunctions rotated
       N       E                     dE             d eps       ncg     rms          ort
 gam= 0.000 g(H,U,f)=  0.871E-01 0.134E-02 0.523E-31 ort(H,U,f) = 0.000E+00 0.000E+00 0.000E+00
SDA:   1    -0.296810847045E+03    0.25213E-01    0.00000E+00  1216   0.884E-01 0.000E+00
 gam= 0.000 trial= 0.652  step= 0.528 mean= 0.652
 gam= 0.155 g(H,U,f)=  0.132E-01 0.496E-03 0.199E-28 ort(H,U,f) = 0.372E-03-0.218E-03 0.112E-29
CGA:   2    -0.296834177596E+03   -0.23331E-01   -0.23339E-01  1216   0.137E-01 0.154E-03
 gam= 0.155 trial= 0.645  step= 0.560 mean= 0.645
 gam= 0.246 g(H,U,f)=  0.319E-02 0.191E-03-0.138E-50 ort(H,U,f) =-0.200E-03 0.191E-03 0.000E+00
CGA:   3    -0.296838035135E+03   -0.38575E-02   -0.38573E-02  1216   0.338E-02-0.861E-05
 gam= 0.246 trial= 0.641  step= 0.529 mean= 0.641
 gam= 0.211 g(H,U,f)=  0.636E-03 0.781E-04 0.537E-29 ort(H,U,f) =-0.162E-03 0.151E-03 0.124E-28
CGA:   4    -0.296838929333E+03   -0.89420E-03   -0.89356E-03  1216   0.714E-03-0.108E-04
 gam= 0.211 trial= 0.635  step= 0.662 mean= 0.635
 gam= 0.305 g(H,U,f)=  0.190E-03 0.284E-04-0.347E-29 ort(H,U,f) =-0.713E-04 0.648E-04-0.789E-29
CGA:   5    -0.296839164826E+03   -0.23549E-03   -0.23558E-03  1216   0.218E-03-0.653E-05
 gam= 0.305 trial= 0.637  step= 0.695 mean= 0.637
 gam= 0.315 g(H,U,f)=  0.629E-04 0.569E-05-0.948E-53 ort(H,U,f) =-0.230E-04 0.205E-04 0.000E+00
CGA:   6    -0.296839239871E+03   -0.75045E-04   -0.75118E-04  1216   0.686E-04-0.254E-05
 gam= 0.315 trial= 0.640  step= 0.729 mean= 0.640
 gam= 0.256 g(H,U,f)=  0.168E-04 0.747E-06 0.224E-53 ort(H,U,f) =-0.577E-05 0.389E-05 0.000E+00
CGA:   7    -0.296839264504E+03   -0.24633E-04   -0.24717E-04  1216   0.175E-04-0.188E-05
 gam= 0.256 trial= 0.644  step= 0.736 mean= 0.644
 gam= 0.213 g(H,U,f)=  0.364E-05 0.916E-07 0.163E-31 ort(H,U,f) =-0.775E-06 0.316E-06 0.118E-30
CGA:   8    -0.296839270763E+03   -0.62594E-05   -0.62801E-05  1216   0.373E-05-0.459E-06
 gam= 0.213 trial= 0.649  step= 0.664 mean= 0.649
 gam= 0.198 g(H,U,f)=  0.711E-06 0.265E-07-0.330E-32 ort(H,U,f) = 0.197E-06 0.374E-07-0.216E-31
CGA:   9    -0.296839271971E+03   -0.12081E-05   -0.12062E-05  1216   0.738E-06 0.234E-06
 gam= 0.198 trial= 0.650  step= 0.678 mean= 0.650
 final diagonalization
  19 F= -.29683927E+03 E0= -.29683927E+03  d E =-.454740E-02
 curvature:  -1.49 expect dE=-0.102E-01 dE for cont linesearch -0.152E-02
 ZBRENT: increasing intervall
 opt :   0.9930  next Energy=  -296.842115 (dE=-0.739E-02)
 bond charge predicted
 wavefunctions rotated
       N       E                     dE             d eps       ncg     rms          ort
 gam= 0.000 g(H,U,f)=  0.349E+00 0.538E-02 0.161E-22 ort(H,U,f) = 0.000E+00 0.000E+00 0.000E+00
SDA:   1    -0.296728206363E+03    0.11106E+00    0.00000E+00  1216   0.354E+00 0.000E+00
 gam= 0.000 trial= 0.651  step= 0.528 mean= 0.651
 gam= 0.156 g(H,U,f)=  0.531E-01 0.203E-02 0.343E-19 ort(H,U,f) = 0.113E-02-0.864E-03 0.112E-20
CGA:   2    -0.296821692046E+03   -0.93486E-01   -0.93495E-01  1216   0.551E-01 0.268E-03
 gam= 0.156 trial= 0.645  step= 0.560 mean= 0.645
 gam= 0.245 g(H,U,f)=  0.127E-01 0.782E-03 0.712E-19 ort(H,U,f) =-0.806E-03 0.789E-03 0.737E-19
CGA:   3    -0.296837140072E+03   -0.15448E-01   -0.15448E-01  1216   0.135E-01-0.170E-04
 gam= 0.245 trial= 0.641  step= 0.529 mean= 0.641
 gam= 0.211 g(H,U,f)=  0.254E-02 0.316E-03 0.777E-20 ort(H,U,f) =-0.640E-03 0.614E-03 0.179E-19
CGA:   4    -0.296840718521E+03   -0.35784E-02   -0.35768E-02  1216   0.286E-02-0.256E-04
 gam= 0.211 trial= 0.635  step= 0.660 mean= 0.635
 gam= 0.303 g(H,U,f)=  0.752E-03 0.115E-03 0.273E-20 ort(H,U,f) =-0.276E-03 0.263E-03 0.620E-20
CGA:   5    -0.296841660378E+03   -0.94186E-03   -0.94202E-03  1216   0.868E-03-0.129E-04
 gam= 0.303 trial= 0.636  step= 0.695 mean= 0.636
 gam= 0.313 g(H,U,f)=  0.248E-03 0.233E-04 0.103E-20 ort(H,U,f) =-0.884E-04 0.835E-04 0.260E-20
CGA:   6    -0.296841960306E+03   -0.29993E-03   -0.30007E-03  1216   0.272E-03-0.493E-05
 gam= 0.313 trial= 0.639  step= 0.724 mean= 0.639
 gam= 0.252 g(H,U,f)=  0.652E-04 0.317E-05 0.105E-21 ort(H,U,f) =-0.201E-04 0.163E-04 0.485E-21
CGA:   7    -0.296842057829E+03   -0.97522E-04   -0.97685E-04  1216   0.683E-04-0.385E-05
 gam= 0.252 trial= 0.643  step= 0.733 mean= 0.643
 gam= 0.212 g(H,U,f)=  0.141E-04 0.394E-06 0.107E-22 ort(H,U,f) =-0.243E-05 0.150E-05 0.719E-22
CGA:   8    -0.296842082487E+03   -0.24658E-04   -0.24701E-04  1216   0.145E-04-0.938E-06
 gam= 0.212 trial= 0.648  step= 0.690 mean= 0.648
 gam= 0.207 g(H,U,f)=  0.290E-05 0.102E-06 0.183E-23 ort(H,U,f) = 0.319E-06 0.170E-06 0.113E-22
CGA:   9    -0.296842087432E+03   -0.49447E-05   -0.49343E-05  1216   0.300E-05 0.489E-06
 gam= 0.207 trial= 0.650  step= 0.728 mean= 0.650
 final diagonalization
  20 F= -.29684209E+03 E0= -.29684209E+03  d E =-.736286E-02
 curvature:  -2.80 expect dE=-0.253E-01 dE for cont linesearch -0.168E-04
 trial: gam= 0.60687 g(F)=  0.863E-02 g(S)=  0.408E-03 ort = 0.675E-03 (trialstep = 0.278E+00)
 search vector abs. value=  0.377E-01
 bond charge predicted
 wavefunctions rotated
       N       E                     dE             d eps       ncg     rms          ort
 gam= 0.000 g(H,U,f)=  0.520E-01 0.875E-03 0.487E-22 ort(H,U,f) = 0.000E+00 0.000E+00 0.000E+00
SDA:   1    -0.296824086797E+03    0.17996E-01    0.00000E+00  1216   0.529E-01 0.000E+00
 gam= 0.000 trial= 0.654  step= 0.571 mean= 0.654
 gam= 0.225 g(H,U,f)=  0.116E-01 0.319E-03 0.510E-21 ort(H,U,f) = 0.427E-03-0.340E-03 0.148E-21
CGA:   2    -0.296839177033E+03   -0.15090E-01   -0.15093E-01  1216   0.119E-01 0.875E-04
 gam= 0.225 trial= 0.650  step= 0.550 mean= 0.650
 gam= 0.227 g(H,U,f)=  0.257E-02 0.137E-03 0.145E-20 ort(H,U,f) =-0.500E-04 0.414E-04 0.126E-20
CGA:   3    -0.296842458955E+03   -0.32819E-02   -0.32816E-02  1216   0.271E-02-0.859E-05
 gam= 0.227 trial= 0.645  step= 0.530 mean= 0.645
 gam= 0.173 g(H,U,f)=  0.437E-03 0.320E-04 0.267E-21 ort(H,U,f) =-0.777E-04 0.678E-04 0.688E-21
CGA:   4    -0.296843175660E+03   -0.71670E-03   -0.71612E-03  1216   0.469E-03-0.992E-05
 gam= 0.173 trial= 0.639  step= 0.604 mean= 0.639
 gam= 0.259 g(H,U,f)=  0.109E-03 0.127E-04 0.123E-21 ort(H,U,f) =-0.285E-04 0.251E-04 0.275E-21
CGA:   5    -0.296843316818E+03   -0.14116E-03   -0.14110E-03  1216   0.121E-03-0.341E-05
 gam= 0.259 trial= 0.637  step= 0.650 mean= 0.637
 gam= 0.277 g(H,U,f)=  0.297E-04 0.390E-05 0.919E-22 ort(H,U,f) =-0.106E-04 0.103E-04 0.177E-21
CGA:   6    -0.296843355933E+03   -0.39115E-04   -0.39117E-04  1216   0.336E-04-0.339E-06
 gam= 0.277 trial= 0.638  step= 0.790 mean= 0.638
 gam= 0.309 g(H,U,f)=  0.967E-05 0.702E-06 0.194E-22 ort(H,U,f) =-0.347E-05 0.262E-05 0.660E-22
CGA:   7    -0.296843369113E+03   -0.13180E-04   -0.13246E-04  1216   0.104E-04-0.856E-06
 gam= 0.309 trial= 0.645  step= 0.789 mean= 0.645
 gam= 0.262 g(H,U,f)=  0.266E-05 0.506E-07 0.162E-23 ort(H,U,f) =-0.926E-06 0.307E-06 0.118E-22
CGA:   8    -0.296843373057E+03   -0.39439E-05   -0.39882E-05  1216   0.271E-05-0.619E-06
 gam= 0.262 trial= 0.653  step= 0.670 mean= 0.653
 final diagonalization
  21 F= -.29684337E+03 E0= -.29684337E+03  d E =-.128563E-02
 trial-energy change:   -0.001286  1 .order   -0.001295   -0.002626    0.000037
 step:   0.2742(harm=  0.2742)  dis= 0.00310  next Energy=  -296.843382 (dE=-0.129E-02)
 bond charge predicted
 wavefunctions rotated
       N       E                     dE             d eps       ncg     rms          ort
 gam= 0.000 g(H,U,f)=  0.108E-04 0.155E-06 0.134E-24 ort(H,U,f) = 0.000E+00 0.000E+00 0.000E+00
SDA:   1    -0.296843370120E+03   -0.10075E-05    0.00000E+00  1216   0.109E-04 0.000E+00
 gam= 0.000 trial= 0.654  step= 0.638 mean= 0.654
 gam= 0.339 g(H,U,f)=  0.362E-05 0.892E-07 0.419E-24 ort(H,U,f) =-0.145E-05-0.901E-07 0.238E-24
CGA:   2    -0.296843373622E+03   -0.35015E-05   -0.34893E-05  1216   0.371E-05-0.154E-05
 gam= 0.339 trial= 0.653  step= 0.449 mean= 0.653
 gam= 0.202 g(H,U,f)=  0.712E-06 0.380E-07 0.465E-24 ort(H,U,f) = 0.152E-06 0.222E-07 0.526E-24
CGA:   3    -0.296843374320E+03   -0.69780E-06   -0.71590E-06  1216   0.750E-06 0.174E-06
 gam= 0.202 trial= 0.643  step= 0.357 mean= 0.643
 gam= 0.204 g(H,U,f)=  0.141E-06 0.122E-07 0.208E-24 ort(H,U,f) = 0.199E-06 0.224E-07 0.383E-24
CGA:   4    -0.296843374429E+03   -0.10894E-06   -0.14042E-06  1216   0.153E-06 0.222E-06
 gam= 0.204 trial= 0.628  step= 0.309 mean= 0.628
 gam= 0.000 g(H,U,f)=  0.475E-07 0.494E-08 0.103E-24 ort(H,U,f) = 0.687E-07 0.104E-07 0.201E-24
CGA:   5    -0.296843374447E+03   -0.18014E-07   -0.30592E-07  1216   0.524E-07 0.791E-07
 gam= 0.000 trial= 0.612  step= 0.593 mean= 0.612
 gam= 0.321 g(H,U,f)=  0.140E-07 0.284E-08 0.688E-25 ort(H,U,f) = 0.111E-07 0.368E-08 0.844E-25
CGA:   6    -0.296843374462E+03   -0.15453E-07   -0.15525E-07  1216   0.168E-07 0.147E-07
 gam= 0.321 trial= 0.611  step= 0.328 mean= 0.611
 gam= 0.000 g(H,U,f)=  0.653E-08 0.168E-08 0.473E-25 ort(H,U,f) = 0.109E-07 0.309E-08 0.798E-25
CGA:   7    -0.296843374464E+03   -0.14188E-08   -0.35316E-08  1216   0.821E-08 0.140E-07
 gam= 0.000 trial= 0.597  step= 0.252 mean= 0.597
 gam= 0.000 g(H,U,f)=  0.426E-08 0.128E-08 0.380E-25 ort(H,U,f) = 0.505E-08 0.146E-08 0.425E-25
CGA:   8    -0.296843374464E+03    0.35470E-10   -0.10349E-08  1216   0.554E-08 0.652E-08
 gam= 0.000 trial= 0.580  step= 0.256 mean= 0.580
 final diagonalization
  22 F= -.29684337E+03 E0= -.29684337E+03  d E =-.128703E-02
 curvature:  -0.55 expect dE=-0.280E-02 dE for cont linesearch -0.422E-09
 trial: gam= 0.61398 g(F)=  0.486E-02 g(S)=  0.260E-03 ort =-0.539E-05 (trialstep = 0.277E+00)
 search vector abs. value=  0.193E-01
 bond charge predicted
 wavefunctions rotated
       N       E                     dE             d eps       ncg     rms          ort
 gam= 0.000 g(H,U,f)=  0.187E-01 0.333E-03 0.195E-22 ort(H,U,f) = 0.000E+00 0.000E+00 0.000E+00
SDA:   1    -0.296838222971E+03    0.51515E-02    0.00000E+00  1216   0.190E-01 0.000E+00
 gam= 0.000 trial= 0.564  step= 0.545 mean= 0.564
 gam= 0.153 g(H,U,f)=  0.283E-02 0.870E-04 0.205E-21 ort(H,U,f) = 0.163E-03-0.108E-03 0.632E-22
CGA:   2    -0.296843411193E+03   -0.51882E-02   -0.51887E-02  1216   0.292E-02 0.548E-04
 gam= 0.153 trial= 0.563  step= 0.583 mean= 0.563
 gam= 0.245 g(H,U,f)=  0.676E-03 0.392E-04 0.395E-21 ort(H,U,f) =-0.335E-04 0.294E-04 0.347E-21
CGA:   3    -0.296844263820E+03   -0.85263E-03   -0.85267E-03  1216   0.715E-03-0.415E-05
 gam= 0.245 trial= 0.564  step= 0.522 mean= 0.564
 gam= 0.215 g(H,U,f)=  0.140E-03 0.132E-04 0.873E-22 ort(H,U,f) =-0.269E-04 0.260E-04 0.214E-21
CGA:   4    -0.296844450118E+03   -0.18630E-03   -0.18628E-03  1216   0.154E-03-0.988E-06
 gam= 0.215 trial= 0.562  step= 0.654 mean= 0.562
 gam= 0.293 g(H,U,f)=  0.402E-04 0.476E-05 0.408E-22 ort(H,U,f) =-0.123E-04 0.109E-04 0.944E-22
CGA:   5    -0.296844500220E+03   -0.50102E-04   -0.50165E-04  1216   0.450E-04-0.138E-05
 gam= 0.293 trial= 0.566  step= 0.692 mean= 0.566
 gam= 0.309 g(H,U,f)=  0.128E-04 0.105E-05 0.247E-22 ort(H,U,f) =-0.389E-05 0.350E-05 0.549E-22
CGA:   6    -0.296844515625E+03   -0.15405E-04   -0.15429E-04  1216   0.139E-04-0.387E-06
 gam= 0.309 trial= 0.573  step= 0.742 mean= 0.573
 gam= 0.265 g(H,U,f)=  0.355E-05 0.137E-06 0.356E-23 ort(H,U,f) =-0.110E-05 0.686E-06 0.159E-22
CGA:   7    -0.296844520700E+03   -0.50746E-05   -0.51091E-05  1216   0.369E-05-0.409E-06
 gam= 0.265 trial= 0.581  step= 0.764 mean= 0.581
 gam= 0.233 g(H,U,f)=  0.842E-06 0.185E-07 0.441E-24 ort(H,U,f) =-0.281E-06 0.372E-07 0.280E-23
CGA:   8    -0.296844522045E+03   -0.13455E-05   -0.13675E-05  1216   0.861E-06-0.244E-06
 gam= 0.233 trial= 0.590  step= 0.688 mean= 0.590
 final diagonalization
  23 F= -.29684452E+03 E0= -.29684452E+03  d E =-.114758E-02
 trial-energy change:   -0.001148  1 .order   -0.001151   -0.001419   -0.000883
 step:   0.7339(harm=  0.7339)  dis= 0.00624  next Energy=  -296.845252 (dE=-0.188E-02)
 bond charge predicted
 wavefunctions rotated
       N       E                     dE             d eps       ncg     rms          ort
 gam= 0.000 g(H,U,f)=  0.507E-01 0.904E-03 0.381E-22 ort(H,U,f) = 0.000E+00 0.000E+00 0.000E+00
SDA:   1    -0.296828151219E+03    0.16369E-01    0.00000E+00  1216   0.516E-01 0.000E+00
 gam= 0.000 trial= 0.595  step= 0.546 mean= 0.595
 gam= 0.154 g(H,U,f)=  0.768E-02 0.238E-03 0.639E-21 ort(H,U,f) = 0.377E-03-0.292E-03 0.168E-21
CGA:   2    -0.296842235346E+03   -0.14084E-01   -0.14086E-01  1216   0.792E-02 0.842E-04
 gam= 0.154 trial= 0.593  step= 0.582 mean= 0.593
 gam= 0.244 g(H,U,f)=  0.183E-02 0.106E-03 0.123E-20 ort(H,U,f) =-0.874E-04 0.805E-04 0.109E-20
CGA:   3    -0.296844545249E+03   -0.23099E-02   -0.23099E-02  1216   0.193E-02-0.685E-05
 gam= 0.244 trial= 0.592  step= 0.522 mean= 0.592
 gam= 0.215 g(H,U,f)=  0.379E-03 0.358E-04 0.255E-21 ort(H,U,f) =-0.723E-04 0.704E-04 0.625E-21
CGA:   4    -0.296845049842E+03   -0.50459E-03   -0.50452E-03  1216   0.415E-03-0.188E-05
 gam= 0.215 trial= 0.589  step= 0.653 mean= 0.589
 gam= 0.292 g(H,U,f)=  0.108E-03 0.130E-04 0.115E-21 ort(H,U,f) =-0.317E-04 0.296E-04 0.265E-21
CGA:   5    -0.296845184953E+03   -0.13511E-03   -0.13518E-03  1216   0.121E-03-0.214E-05
 gam= 0.292 trial= 0.592  step= 0.692 mean= 0.592
 gam= 0.309 g(H,U,f)=  0.346E-04 0.289E-05 0.659E-22 ort(H,U,f) =-0.101E-04 0.957E-05 0.146E-21
CGA:   6    -0.296845226620E+03   -0.41667E-04   -0.41696E-04  1216   0.375E-04-0.583E-06
 gam= 0.309 trial= 0.597  step= 0.735 mean= 0.597
 gam= 0.261 g(H,U,f)=  0.941E-05 0.384E-06 0.955E-23 ort(H,U,f) =-0.258E-05 0.192E-05 0.418E-22
CGA:   7    -0.296845240289E+03   -0.13669E-04   -0.13714E-04  1216   0.979E-05-0.659E-06
 gam= 0.261 trial= 0.604  step= 0.750 mean= 0.604
 gam= 0.226 g(H,U,f)=  0.216E-05 0.524E-07 0.130E-23 ort(H,U,f) =-0.516E-06 0.134E-06 0.769E-23
CGA:   8    -0.296845243867E+03   -0.35789E-05   -0.36066E-05  1216   0.221E-05-0.382E-06
 gam= 0.226 trial= 0.611  step= 0.703 mean= 0.611
 final diagonalization
  24 F= -.29684524E+03 E0= -.29684524E+03  d E =-.186940E-02
 curvature:  -1.39 expect dE=-0.996E-02 dE for cont linesearch -0.133E-09
 trial: gam= 1.31644 g(F)=  0.705E-02 g(S)=  0.136E-03 ort = 0.136E-05 (trialstep = 0.175E+00)
 search vector abs. value=  0.407E-01
 bond charge predicted
 wavefunctions rotated
       N       E                     dE             d eps       ncg     rms          ort
 gam= 0.000 g(H,U,f)=  0.195E-01 0.366E-03 0.687E-24 ort(H,U,f) = 0.000E+00 0.000E+00 0.000E+00
SDA:   1    -0.296839377880E+03    0.58624E-02    0.00000E+00  1216   0.198E-01 0.000E+00
 gam= 0.000 trial= 0.616  step= 0.566 mean= 0.616
 gam= 0.165 g(H,U,f)=  0.319E-02 0.877E-04 0.365E-21 ort(H,U,f) = 0.178E-03-0.145E-03 0.173E-22
CGA:   2    -0.296844996372E+03   -0.56185E-02   -0.56193E-02  1216   0.328E-02 0.326E-04
 gam= 0.165 trial= 0.613  step= 0.623 mean= 0.613
 gam= 0.222 g(H,U,f)=  0.686E-03 0.416E-04 0.446E-21 ort(H,U,f) =-0.245E-04 0.203E-04 0.433E-21
CGA:   3    -0.296846017967E+03   -0.10216E-02   -0.10216E-02  1216   0.727E-03-0.419E-05
 gam= 0.222 trial= 0.614  step= 0.519 mean= 0.614
 gam= 0.202 g(H,U,f)=  0.136E-03 0.109E-04 0.885E-22 ort(H,U,f) =-0.216E-04 0.210E-04 0.230E-21
CGA:   4    -0.296846206605E+03   -0.18864E-03   -0.18861E-03  1216   0.147E-03-0.585E-06
 gam= 0.202 trial= 0.609  step= 0.638 mean= 0.609
 gam= 0.255 g(H,U,f)=  0.336E-04 0.391E-05 0.561E-22 ort(H,U,f) =-0.104E-04 0.873E-05 0.109E-21
CGA:   5    -0.296846253318E+03   -0.46713E-04   -0.46736E-04  1216   0.375E-04-0.164E-05
 gam= 0.255 trial= 0.610  step= 0.714 mean= 0.610
 gam= 0.316 g(H,U,f)=  0.107E-04 0.112E-05 0.240E-22 ort(H,U,f) =-0.348E-05 0.311E-05 0.545E-22
CGA:   6    -0.296846266518E+03   -0.13200E-04   -0.13220E-04  1216   0.118E-04-0.380E-06
 gam= 0.316 trial= 0.616  step= 0.743 mean= 0.616
 gam= 0.297 g(H,U,f)=  0.337E-05 0.151E-06 0.321E-23 ort(H,U,f) =-0.849E-06 0.646E-06 0.150E-22
CGA:   7    -0.296846270854E+03   -0.43352E-05   -0.43484E-05  1216   0.352E-05-0.204E-06
 gam= 0.297 trial= 0.622  step= 0.735 mean= 0.622
 gam= 0.220 g(H,U,f)=  0.751E-06 0.211E-07 0.537E-24 ort(H,U,f) =-0.162E-06 0.621E-07 0.315E-23
CGA:   8    -0.296846272117E+03   -0.12636E-05   -0.12694E-05  1216   0.772E-06-0.100E-06
 gam= 0.220 trial= 0.628  step= 0.717 mean= 0.628
 final diagonalization
  25 F= -.29684627E+03 E0= -.29684627E+03  d E =-.102825E-02
 trial-energy change:   -0.001028  1 .order   -0.001027   -0.001258   -0.000796
 step:   0.4767(harm=  0.4767)  dis= 0.00665  next Energy=  -296.846956 (dE=-0.171E-02)
 bond charge predicted
 wavefunctions rotated
       N       E                     dE             d eps       ncg     rms          ort
 gam= 0.000 g(H,U,f)=  0.578E-01 0.109E-02 0.191E-24 ort(H,U,f) = 0.000E+00 0.000E+00 0.000E+00
SDA:   1    -0.296826497841E+03    0.19773E-01    0.00000E+00  1216   0.589E-01 0.000E+00
 gam= 0.000 trial= 0.632  step= 0.567 mean= 0.632
 gam= 0.165 g(H,U,f)=  0.947E-02 0.261E-03 0.198E-20 ort(H,U,f) = 0.485E-03-0.431E-03 0.255E-22
CGA:   2    -0.296843169557E+03   -0.16672E-01   -0.16673E-01  1216   0.973E-02 0.539E-04
 gam= 0.165 trial= 0.629  step= 0.621 mean= 0.629
 gam= 0.222 g(H,U,f)=  0.204E-02 0.124E-03 0.257E-20 ort(H,U,f) =-0.681E-04 0.609E-04 0.250E-20
CGA:   3    -0.296846197200E+03   -0.30276E-02   -0.30276E-02  1216   0.216E-02-0.728E-05
 gam= 0.222 trial= 0.628  step= 0.519 mean= 0.628
 gam= 0.203 g(H,U,f)=  0.405E-03 0.324E-04 0.478E-21 ort(H,U,f) =-0.637E-04 0.626E-04 0.123E-20
CGA:   4    -0.296846757774E+03   -0.56057E-03   -0.56050E-03  1216   0.438E-03-0.115E-05
 gam= 0.203 trial= 0.623  step= 0.634 mean= 0.623
 gam= 0.253 g(H,U,f)=  0.991E-04 0.117E-04 0.303E-21 ort(H,U,f) =-0.288E-04 0.261E-04 0.588E-21
CGA:   5    -0.296846896478E+03   -0.13870E-03   -0.13872E-03  1216   0.111E-03-0.272E-05
 gam= 0.253 trial= 0.624  step= 0.713 mean= 0.624
 gam= 0.316 g(H,U,f)=  0.315E-04 0.343E-05 0.129E-21 ort(H,U,f) =-0.998E-05 0.935E-05 0.289E-21
CGA:   6    -0.296846935693E+03   -0.39215E-04   -0.39243E-04  1216   0.350E-04-0.631E-06
 gam= 0.316 trial= 0.628  step= 0.741 mean= 0.628
 gam= 0.295 g(H,U,f)=  0.986E-05 0.467E-06 0.174E-22 ort(H,U,f) =-0.233E-05 0.199E-05 0.794E-22
CGA:   7    -0.296846948547E+03   -0.12854E-04   -0.12873E-04  1216   0.103E-04-0.347E-06
 gam= 0.295 trial= 0.634  step= 0.730 mean= 0.634
 gam= 0.218 g(H,U,f)=  0.218E-05 0.657E-07 0.301E-23 ort(H,U,f) =-0.380E-06 0.206E-06 0.171E-22
CGA:   8    -0.296846952271E+03   -0.37240E-05   -0.37324E-05  1216   0.225E-05-0.174E-06
 gam= 0.218 trial= 0.638  step= 0.722 mean= 0.638
 final diagonalization
  26 F= -.29684695E+03 E0= -.29684695E+03  d E =-.170840E-02
 curvature:  -1.35 expect dE=-0.807E-02 dE for cont linesearch -0.142E-07
 trial: gam= 0.83042 g(F)=  0.568E-02 g(S)=  0.300E-03 ort =-0.207E-04 (trialstep = 0.235E+00)
 search vector abs. value=  0.340E-01
 bond charge predicted
 wavefunctions rotated
       N       E                     dE             d eps       ncg     rms          ort
 gam= 0.000 g(H,U,f)=  0.267E-01 0.571E-03 0.122E-26 ort(H,U,f) = 0.000E+00 0.000E+00 0.000E+00
SDA:   1    -0.296838693986E+03    0.82546E-02    0.00000E+00  1216   0.272E-01 0.000E+00
 gam= 0.000 trial= 0.643  step= 0.560 mean= 0.643
 gam= 0.154 g(H,U,f)=  0.405E-02 0.131E-03 0.302E-21 ort(H,U,f) = 0.248E-03-0.223E-03 0.371E-24
CGA:   2    -0.296846322958E+03   -0.76290E-02   -0.76300E-02  1216   0.419E-02 0.252E-04
 gam= 0.154 trial= 0.638  step= 0.624 mean= 0.638
 gam= 0.243 g(H,U,f)=  0.965E-03 0.528E-04 0.744E-21 ort(H,U,f) =-0.426E-04 0.388E-04 0.535E-21
CGA:   3    -0.296847629743E+03   -0.13068E-02   -0.13068E-02  1216   0.102E-02-0.381E-05
 gam= 0.243 trial= 0.638  step= 0.511 mean= 0.638
 gam= 0.214 g(H,U,f)=  0.198E-03 0.189E-04 0.112E-21 ort(H,U,f) =-0.322E-04 0.319E-04 0.322E-21
CGA:   4    -0.296847889519E+03   -0.25978E-03   -0.25975E-03  1216   0.217E-03-0.342E-06
 gam= 0.214 trial= 0.631  step= 0.652 mean= 0.631
 gam= 0.268 g(H,U,f)=  0.524E-04 0.588E-05 0.700E-22 ort(H,U,f) =-0.156E-04 0.137E-04 0.148E-21
CGA:   5    -0.296847960314E+03   -0.70795E-04   -0.70814E-04  1216   0.583E-04-0.184E-05
 gam= 0.268 trial= 0.632  step= 0.709 mean= 0.632
 gam= 0.320 g(H,U,f)=  0.174E-04 0.125E-05 0.411E-22 ort(H,U,f) =-0.452E-05 0.423E-05 0.850E-22
CGA:   6    -0.296847980798E+03   -0.20485E-04   -0.20495E-04  1216   0.187E-04-0.284E-06
 gam= 0.320 trial= 0.636  step= 0.715 mean= 0.636
 gam= 0.271 g(H,U,f)=  0.485E-05 0.209E-06 0.408E-23 ort(H,U,f) =-0.982E-06 0.912E-06 0.215E-22
CGA:   7    -0.296847987441E+03   -0.66423E-05   -0.66451E-05  1216   0.505E-05-0.698E-07
 gam= 0.271 trial= 0.640  step= 0.723 mean= 0.640
 gam= 0.213 g(H,U,f)=  0.104E-05 0.359E-07 0.959E-24 ort(H,U,f) =-0.117E-06 0.548E-07 0.487E-23
CGA:   8    -0.296847989259E+03   -0.18180E-05   -0.18206E-05  1216   0.108E-05-0.625E-07
 gam= 0.213 trial= 0.644  step= 0.717 mean= 0.644
 final diagonalization
  27 F= -.29684799E+03 E0= -.29684799E+03  d E =-.103699E-02
 trial-energy change:   -0.001037  1 .order   -0.001037   -0.001403   -0.000671
 step:   0.4511(harm=  0.4511)  dis= 0.00650  next Energy=  -296.848296 (dE=-0.134E-02)
 bond charge predicted
 wavefunctions rotated
       N       E                     dE             d eps       ncg     rms          ort
 gam= 0.000 g(H,U,f)=  0.224E-01 0.479E-03 0.616E-24 ort(H,U,f) = 0.000E+00 0.000E+00 0.000E+00
SDA:   1    -0.296840496084E+03    0.74914E-02    0.00000E+00  1216   0.228E-01 0.000E+00
 gam= 0.000 trial= 0.648  step= 0.560 mean= 0.648
 gam= 0.154 g(H,U,f)=  0.340E-02 0.110E-03 0.313E-21 ort(H,U,f) = 0.209E-03-0.187E-03-0.132E-22
CGA:   2    -0.296846895261E+03   -0.63992E-02   -0.64001E-02  1216   0.351E-02 0.227E-04
 gam= 0.154 trial= 0.644  step= 0.624 mean= 0.644
 gam= 0.243 g(H,U,f)=  0.807E-03 0.443E-04 0.786E-21 ort(H,U,f) =-0.359E-04 0.325E-04 0.552E-21
CGA:   3    -0.296847991546E+03   -0.10963E-02   -0.10963E-02  1216   0.851E-03-0.338E-05
 gam= 0.243 trial= 0.643  step= 0.512 mean= 0.643
 gam= 0.214 g(H,U,f)=  0.166E-03 0.158E-04 0.117E-21 ort(H,U,f) =-0.269E-04 0.267E-04 0.339E-21
CGA:   4    -0.296848209137E+03   -0.21759E-03   -0.21757E-03  1216   0.182E-03-0.280E-06
 gam= 0.214 trial= 0.636  step= 0.653 mean= 0.636
 gam= 0.269 g(H,U,f)=  0.439E-04 0.491E-05 0.735E-22 ort(H,U,f) =-0.132E-04 0.115E-04 0.155E-21
CGA:   5    -0.296848268451E+03   -0.59314E-04   -0.59328E-04  1216   0.489E-04-0.171E-05
 gam= 0.269 trial= 0.637  step= 0.709 mean= 0.637
 gam= 0.320 g(H,U,f)=  0.146E-04 0.105E-05 0.432E-22 ort(H,U,f) =-0.378E-05 0.354E-05 0.893E-22
CGA:   6    -0.296848285596E+03   -0.17145E-04   -0.17153E-04  1216   0.156E-04-0.245E-06
 gam= 0.320 trial= 0.641  step= 0.715 mean= 0.641
 gam= 0.271 g(H,U,f)=  0.405E-05 0.174E-06 0.437E-23 ort(H,U,f) =-0.819E-06 0.762E-06 0.228E-22
CGA:   7    -0.296848291152E+03   -0.55560E-05   -0.55579E-05  1216   0.423E-05-0.569E-07
 gam= 0.271 trial= 0.644  step= 0.724 mean= 0.644
 gam= 0.214 g(H,U,f)=  0.873E-06 0.301E-07 0.103E-23 ort(H,U,f) =-0.104E-06 0.462E-07 0.519E-23
CGA:   8    -0.296848292674E+03   -0.15220E-05   -0.15243E-05  1216   0.903E-06-0.582E-07
 gam= 0.214 trial= 0.648  step= 0.717 mean= 0.648
 final diagonalization
  28 F= -.29684829E+03 E0= -.29684829E+03  d E =-.134040E-02
 curvature:  -1.29 expect dE=-0.424E-02 dE for cont linesearch -0.206E-07
 trial: gam= 0.53719 g(F)=  0.296E-02 g(S)=  0.334E-03 ort =-0.234E-04 (trialstep = 0.279E+00)
 search vector abs. value=  0.131E-01
 bond charge predicted
 wavefunctions rotated
       N       E                     dE             d eps       ncg     rms          ort
 gam= 0.000 g(H,U,f)=  0.147E-01 0.396E-03 0.102E-21 ort(H,U,f) = 0.000E+00 0.000E+00 0.000E+00
SDA:   1    -0.296844030448E+03    0.42607E-02    0.00000E+00  1216   0.151E-01 0.000E+00
 gam= 0.000 trial= 0.652  step= 0.550 mean= 0.652
 gam= 0.134 g(H,U,f)=  0.195E-02 0.646E-04 0.480E-22 ort(H,U,f) = 0.151E-03-0.149E-03-0.745E-22
CGA:   2    -0.296848180468E+03   -0.41500E-02   -0.41501E-02  1216   0.202E-02 0.162E-05
 gam= 0.134 trial= 0.647  step= 0.664 mean= 0.647
 gam= 0.216 g(H,U,f)=  0.403E-03 0.334E-04 0.792E-23 ort(H,U,f) =-0.209E-04 0.230E-04 0.151E-22
CGA:   3    -0.296848850607E+03   -0.67014E-03   -0.67012E-03  1216   0.436E-03 0.204E-05
 gam= 0.216 trial= 0.647  step= 0.532 mean= 0.647
 gam= 0.233 g(H,U,f)=  0.931E-04 0.853E-05 0.169E-22 ort(H,U,f) =-0.160E-04 0.156E-04 0.165E-22
CGA:   4    -0.296848966793E+03   -0.11619E-03   -0.11617E-03  1216   0.102E-03-0.371E-06
 gam= 0.233 trial= 0.642  step= 0.635 mean= 0.642
 gam= 0.258 g(H,U,f)=  0.235E-04 0.275E-05 0.546E-23 ort(H,U,f) =-0.667E-05 0.676E-05 0.117E-22
CGA:   5    -0.296848999029E+03   -0.32236E-04   -0.32236E-04  1216   0.262E-04 0.900E-07
 gam= 0.258 trial= 0.641  step= 0.732 mean= 0.641
 gam= 0.305 g(H,U,f)=  0.735E-05 0.641E-06 0.117E-23 ort(H,U,f) =-0.208E-05 0.206E-05 0.390E-23
CGA:   6    -0.296849008632E+03   -0.96032E-05   -0.96042E-05  1216   0.799E-05-0.230E-07
 gam= 0.305 trial= 0.646  step= 0.728 mean= 0.646
 gam= 0.270 g(H,U,f)=  0.207E-05 0.809E-07 0.551E-24 ort(H,U,f) =-0.259E-06 0.297E-06 0.162E-23
CGA:   7    -0.296849011539E+03   -0.29070E-05   -0.29051E-05  1216   0.216E-05 0.385E-07
 gam= 0.270 trial= 0.650  step= 0.710 mean= 0.650
 gam= 0.221 g(H,U,f)=  0.458E-06 0.180E-07 0.560E-25 ort(H,U,f) =-0.405E-07 0.208E-07 0.316E-24
CGA:   8    -0.296849012308E+03   -0.76823E-06   -0.76873E-06  1216   0.476E-06-0.197E-07
 gam= 0.221 trial= 0.653  step= 0.783 mean= 0.653
 final diagonalization
  29 F= -.29684901E+03 E0= -.29684901E+03  d E =-.719634E-03
 trial-energy change:   -0.000720  1 .order   -0.000717   -0.000915   -0.000520
 step:   0.6453(harm=  0.6453)  dis= 0.00680  next Energy=  -296.849353 (dE=-0.106E-02)
 bond charge predicted
 wavefunctions rotated
       N       E                     dE             d eps       ncg     rms          ort
 gam= 0.000 g(H,U,f)=  0.255E-01 0.687E-03 0.297E-21 ort(H,U,f) = 0.000E+00 0.000E+00 0.000E+00
SDA:   1    -0.296840716942E+03    0.82946E-02    0.00000E+00  1216   0.262E-01 0.000E+00
 gam= 0.000 trial= 0.659  step= 0.550 mean= 0.659
 gam= 0.134 g(H,U,f)=  0.339E-02 0.112E-03 0.122E-21 ort(H,U,f) = 0.260E-03-0.258E-03-0.210E-21
CGA:   2    -0.296847910936E+03   -0.71940E-02   -0.71941E-02  1216   0.350E-02 0.207E-05
 gam= 0.134 trial= 0.654  step= 0.664 mean= 0.654
 gam= 0.216 g(H,U,f)=  0.698E-03 0.580E-04 0.210E-22 ort(H,U,f) =-0.374E-04 0.398E-04 0.373E-22
CGA:   3    -0.296849072563E+03   -0.11616E-02   -0.11616E-02  1216   0.756E-03 0.248E-05
 gam= 0.216 trial= 0.654  step= 0.533 mean= 0.654
 gam= 0.233 g(H,U,f)=  0.161E-03 0.148E-04 0.414E-22 ort(H,U,f) =-0.275E-04 0.271E-04 0.415E-22
CGA:   4    -0.296849274040E+03   -0.20148E-03   -0.20145E-03  1216   0.176E-03-0.455E-06
 gam= 0.233 trial= 0.648  step= 0.635 mean= 0.648
 gam= 0.259 g(H,U,f)=  0.407E-04 0.477E-05 0.130E-22 ort(H,U,f) =-0.116E-04 0.117E-04 0.277E-22
CGA:   5    -0.296849329861E+03   -0.55821E-04   -0.55821E-04  1216   0.455E-04 0.105E-06
 gam= 0.259 trial= 0.648  step= 0.729 mean= 0.648
 gam= 0.305 g(H,U,f)=  0.128E-04 0.112E-05 0.278E-23 ort(H,U,f) =-0.360E-05 0.358E-05 0.915E-23
CGA:   6    -0.296849346471E+03   -0.16610E-04   -0.16611E-04  1216   0.139E-04-0.198E-07
 gam= 0.305 trial= 0.652  step= 0.727 mean= 0.652
 gam= 0.271 g(H,U,f)=  0.362E-05 0.141E-06 0.131E-23 ort(H,U,f) =-0.472E-06 0.521E-06 0.380E-23
CGA:   7    -0.296849351516E+03   -0.50448E-05   -0.50433E-05  1216   0.376E-05 0.491E-07
 gam= 0.271 trial= 0.656  step= 0.707 mean= 0.656
 gam= 0.220 g(H,U,f)=  0.797E-06 0.313E-07 0.135E-24 ort(H,U,f) =-0.669E-07 0.374E-07 0.746E-24
CGA:   8    -0.296849352851E+03   -0.13350E-05   -0.13358E-05  1216   0.828E-06-0.295E-07
 gam= 0.220 trial= 0.658  step= 0.769 mean= 0.658
 final diagonalization
  30 F= -.29684935E+03 E0= -.29684935E+03  d E =-.106018E-02
 curvature:  -1.29 expect dE=-0.958E-02 dE for cont linesearch -0.320E-07
 trial: gam= 2.25200 g(F)=  0.706E-02 g(S)=  0.398E-03 ort =-0.180E-04 (trialstep = 0.625E-01)
 search vector abs. value=  0.737E-01
 bond charge predicted
 wavefunctions rotated
       N       E                     dE             d eps       ncg     rms          ort
 gam= 0.000 g(H,U,f)=  0.439E-02 0.136E-03 0.347E-22 ort(H,U,f) = 0.000E+00 0.000E+00 0.000E+00
SDA:   1    -0.296848363795E+03    0.98772E-03    0.00000E+00  1216   0.453E-02 0.000E+00
 gam= 0.000 trial= 0.664  step= 0.533 mean= 0.664
 gam= 0.120 g(H,U,f)=  0.525E-03 0.211E-04 0.287E-22 ort(H,U,f) = 0.446E-04-0.494E-04 0.324E-22
CGA:   2    -0.296849572223E+03   -0.12084E-02   -0.12081E-02  1216   0.546E-03-0.479E-05
 gam= 0.120 trial= 0.657  step= 0.658 mean= 0.657
 gam= 0.215 g(H,U,f)=  0.107E-03 0.106E-04 0.111E-22 ort(H,U,f) =-0.387E-05 0.447E-05 0.201E-22
CGA:   3    -0.296849751633E+03   -0.17941E-03   -0.17941E-03  1216   0.117E-03 0.600E-06
 gam= 0.215 trial= 0.657  step= 0.556 mean= 0.657
 gam= 0.240 g(H,U,f)=  0.251E-04 0.296E-05 0.238E-23 ort(H,U,f) =-0.415E-05 0.443E-05 0.727E-23
CGA:   4    -0.296849784200E+03   -0.32568E-04   -0.32581E-04  1216   0.281E-04 0.281E-06
 gam= 0.240 trial= 0.652  step= 0.662 mean= 0.652
 gam= 0.279 g(H,U,f)=  0.703E-05 0.812E-06 0.136E-23 ort(H,U,f) =-0.207E-05 0.208E-05 0.310E-23
CGA:   5    -0.296849793507E+03   -0.93063E-05   -0.93065E-05  1216   0.784E-05 0.131E-07
 gam= 0.279 trial= 0.653  step= 0.716 mean= 0.653
 gam= 0.288 g(H,U,f)=  0.207E-05 0.191E-06 0.424E-24 ort(H,U,f) =-0.516E-06 0.595E-06 0.125E-23
CGA:   6    -0.296849796319E+03   -0.28120E-05   -0.28092E-05  1216   0.226E-05 0.796E-07
 gam= 0.288 trial= 0.656  step= 0.695 mean= 0.656
 gam= 0.241 g(H,U,f)=  0.514E-06 0.303E-07 0.354E-25 ort(H,U,f) = 0.111E-07 0.948E-07 0.227E-24
CGA:   7    -0.296849797114E+03   -0.79527E-06   -0.79336E-06  1216   0.545E-06 0.106E-06
 gam= 0.241 trial= 0.658  step= 0.738 mean= 0.658
 gam= 0.246 g(H,U,f)=  0.128E-06 0.570E-08 0.542E-26 ort(H,U,f) =-0.156E-07 0.698E-08 0.353E-25
CGA:   8    -0.296849797324E+03   -0.20991E-06   -0.21029E-06  1216   0.134E-06-0.864E-08
 gam= 0.246 trial= 0.662  step= 0.803 mean= 0.662
 final diagonalization
  31 F= -.29684980E+03 E0= -.29684980E+03  d E =-.444473E-03
 ZBRENT: can't locate minimum, use default step
 trial-energy change:   -0.000444  1 .order   -0.000444   -0.000463   -0.000424
 step:   0.2498(harm=  0.7442)  dis= 0.00663  next Energy=  -296.852112 (dE=-0.276E-02)
 bond charge predicted
 wavefunctions rotated
       N       E                     dE             d eps       ncg     rms          ort
 gam= 0.000 g(H,U,f)=  0.396E-01 0.123E-02 0.345E-21 ort(H,U,f) = 0.000E+00 0.000E+00 0.000E+00
SDA:   1    -0.296837978865E+03    0.11818E-01    0.00000E+00  1216   0.409E-01 0.000E+00
 gam= 0.000 trial= 0.669  step= 0.533 mean= 0.669
 gam= 0.120 g(H,U,f)=  0.472E-02 0.187E-03 0.168E-21 ort(H,U,f) = 0.430E-03-0.444E-03 0.262E-21
CGA:   2    -0.296848861670E+03   -0.10883E-01   -0.10882E-01  1216   0.491E-02-0.135E-04
 gam= 0.120 trial= 0.662  step= 0.660 mean= 0.662
 gam= 0.214 g(H,U,f)=  0.955E-03 0.959E-04 0.606E-22 ort(H,U,f) =-0.397E-04 0.407E-04 0.117E-21
CGA:   3    -0.296850480686E+03   -0.16190E-02   -0.16190E-02  1216   0.105E-02 0.973E-06
 gam= 0.214 trial= 0.662  step= 0.559 mean= 0.662
 gam= 0.240 g(H,U,f)=  0.226E-03 0.267E-04 0.117E-22 ort(H,U,f) =-0.390E-04 0.397E-04 0.395E-22
CGA:   4    -0.296850774084E+03   -0.29340E-03   -0.29344E-03  1216   0.252E-03 0.739E-06
 gam= 0.240 trial= 0.657  step= 0.661 mean= 0.657
 gam= 0.277 g(H,U,f)=  0.627E-04 0.728E-05 0.679E-23 ort(H,U,f) =-0.186E-04 0.187E-04 0.158E-22
CGA:   5    -0.296850857602E+03   -0.83517E-04   -0.83517E-04  1216   0.700E-04 0.138E-06
 gam= 0.277 trial= 0.657  step= 0.719 mean= 0.657
 gam= 0.291 g(H,U,f)=  0.186E-04 0.171E-05 0.197E-23 ort(H,U,f) =-0.512E-05 0.534E-05 0.605E-23
CGA:   6    -0.296850882777E+03   -0.25176E-04   -0.25169E-04  1216   0.204E-04 0.224E-06
 gam= 0.291 trial= 0.660  step= 0.713 mean= 0.660
 gam= 0.250 g(H,U,f)=  0.482E-05 0.266E-06 0.976E-25 ort(H,U,f) =-0.466E-06 0.779E-06 0.836E-24
CGA:   7    -0.296850890061E+03   -0.72840E-05   -0.72758E-05  1216   0.509E-05 0.313E-06
 gam= 0.250 trial= 0.663  step= 0.714 mean= 0.663
 gam= 0.226 g(H,U,f)=  0.110E-05 0.498E-07 0.121E-25 ort(H,U,f) =-0.723E-07 0.498E-07 0.108E-24
CGA:   8    -0.296850891905E+03   -0.18435E-05   -0.18443E-05  1216   0.115E-05-0.225E-07
 gam= 0.226 trial= 0.665  step= 0.769 mean= 0.665
 final diagonalization
  32 F= -.29685089E+03 E0= -.29685089E+03  d E =-.153905E-02
 curvature:  -1.75 expect dE=-0.819E-02 dE for cont linesearch -0.568E-03
 ZBRENT: increasing intervall
 opt :   0.6245  next Energy=  -296.852010 (dE=-0.266E-02)
 bond charge predicted
 wavefunctions rotated
       N       E                     dE             d eps       ncg     rms          ort
[...]
 gam= 0.300 g(H,U,f)=  0.164E-05 0.236E-06 0.530E-20 ort(H,U,f) =-0.624E-06 0.626E-06-0.245E-21
CGA:   6    -0.296925588450E+03   -0.22003E-05   -0.22004E-05  1216   0.187E-05 0.232E-08
 gam= 0.300 trial= 0.642  step= 0.762 mean= 0.642
 gam= 0.316 g(H,U,f)=  0.552E-06 0.403E-07 0.477E-22 ort(H,U,f) =-0.177E-06 0.164E-06-0.494E-21
CGA:   7    -0.296925589163E+03   -0.71311E-06   -0.71375E-06  1216   0.592E-06-0.125E-07
 gam= 0.316 trial= 0.648  step= 0.721 mean= 0.648
 gam= 0.225 g(H,U,f)=  0.130E-06 0.274E-08 0.933E-22 ort(H,U,f) =-0.916E-08 0.195E-07 0.152E-21
CGA:   8    -0.296925589376E+03   -0.21259E-06   -0.21215E-06  1216   0.133E-06 0.103E-07
 gam= 0.225 trial= 0.651  step= 0.716 mean= 0.651
 final diagonalization
 341 F= -.29692559E+03 E0= -.29692559E+03  d E =-.251542E-04
 trial-energy change:   -0.000025  1 .order   -0.000024   -0.000029   -0.000019
 step:   0.4887(harm=  0.4887)  dis= 0.00244  next Energy=  -296.925606 (dE=-0.421E-04)
 bond charge predicted
 wavefunctions rotated
       N       E                     dE             d eps       ncg     rms          ort
 gam= 0.000 g(H,U,f)=  0.119E-01 0.134E-03 0.661E-19 ort(H,U,f) = 0.000E+00 0.000E+00 0.000E+00
SDA:   1    -0.296920748281E+03    0.48409E-02    0.00000E+00  1216   0.120E-01 0.000E+00
 gam= 0.000 trial= 0.655  step= 0.642 mean= 0.655
 gam= 0.262 g(H,U,f)=  0.307E-02 0.626E-04 0.404E-19 ort(H,U,f) = 0.771E-04-0.787E-04 0.535E-19
CGA:   2    -0.296924598981E+03   -0.38507E-02   -0.38507E-02  1216   0.314E-02-0.159E-05
 gam= 0.262 trial= 0.654  step= 0.529 mean= 0.654
 gam= 0.173 g(H,U,f)=  0.525E-03 0.168E-04 0.692E-18 ort(H,U,f) =-0.669E-05 0.768E-05-0.209E-18
CGA:   3    -0.296925428263E+03   -0.82928E-03   -0.82934E-03  1216   0.542E-03 0.993E-06
 gam= 0.173 trial= 0.648  step= 0.512 mean= 0.648
 gam= 0.188 g(H,U,f)=  0.945E-04 0.744E-05 0.212E-19 ort(H,U,f) =-0.112E-04 0.113E-04-0.114E-18
CGA:   4    -0.296925567170E+03   -0.13891E-03   -0.13891E-03  1216   0.102E-03 0.156E-07
 gam= 0.188 trial= 0.641  step= 0.578 mean= 0.641
 gam= 0.221 g(H,U,f)=  0.193E-04 0.325E-05 0.337E-21 ort(H,U,f) =-0.575E-05 0.599E-05-0.287E-22
CGA:   5    -0.296925596615E+03   -0.29445E-04   -0.29453E-04  1216   0.225E-04 0.245E-06
 gam= 0.221 trial= 0.638  step= 0.700 mean= 0.638
 gam= 0.297 g(H,U,f)=  0.583E-05 0.855E-06 0.191E-19 ort(H,U,f) =-0.224E-05 0.225E-05-0.245E-20
CGA:   6    -0.296925604514E+03   -0.78990E-05   -0.78988E-05  1216   0.669E-05 0.138E-07
 gam= 0.297 trial= 0.641  step= 0.760 mean= 0.641
 gam= 0.314 g(H,U,f)=  0.195E-05 0.150E-06 0.246E-21 ort(H,U,f) =-0.624E-06 0.600E-06-0.207E-20
CGA:   7    -0.296925607054E+03   -0.25400E-05   -0.25415E-05  1216   0.210E-05-0.238E-07
 gam= 0.314 trial= 0.647  step= 0.728 mean= 0.647
 gam= 0.228 g(H,U,f)=  0.468E-06 0.106E-07 0.340E-21 ort(H,U,f) =-0.530E-07 0.732E-07 0.473E-21
CGA:   8    -0.296925607816E+03   -0.76189E-06   -0.76099E-06  1216   0.479E-06 0.202E-07
 gam= 0.228 trial= 0.651  step= 0.719 mean= 0.651
 final diagonalization
 342 F= -.29692561E+03 E0= -.29692561E+03  d E =-.435943E-04
 curvature:  -9.41 expect dE=-0.133E-02 dE for cont linesearch -0.178E-07
 trial: gam= 0.85312 g(F)=  0.119E-03 g(S)=  0.218E-04 ort =-0.355E-05 (trialstep = 0.232E+00)
 search vector abs. value=  0.497E-02
 bond charge predicted
 wavefunctions rotated
       N       E                     dE             d eps       ncg     rms          ort
 gam= 0.000 g(H,U,f)=  0.480E-02 0.568E-04 0.844E-18 ort(H,U,f) = 0.000E+00 0.000E+00 0.000E+00
SDA:   1    -0.296923665066E+03    0.19420E-02    0.00000E+00  1216   0.486E-02 0.000E+00
 gam= 0.000 trial= 0.654  step= 0.643 mean= 0.654
 gam= 0.260 g(H,U,f)=  0.124E-02 0.248E-04 0.554E-17 ort(H,U,f) = 0.269E-04-0.325E-04-0.217E-17
CGA:   2    -0.296925227918E+03   -0.15629E-02   -0.15628E-02  1216   0.126E-02-0.556E-05
 gam= 0.260 trial= 0.654  step= 0.531 mean= 0.654
 gam= 0.173 g(H,U,f)=  0.211E-03 0.660E-05 0.314E-17 ort(H,U,f) =-0.323E-05 0.384E-05 0.373E-17
CGA:   3    -0.296925562283E+03   -0.33436E-03   -0.33440E-03  1216   0.218E-03 0.617E-06
 gam= 0.173 trial= 0.648  step= 0.511 mean= 0.648
 gam= 0.185 g(H,U,f)=  0.373E-04 0.306E-05 0.506E-18 ort(H,U,f) =-0.384E-05 0.459E-05 0.152E-17
CGA:   4    -0.296925617942E+03   -0.55659E-04   -0.55710E-04  1216   0.404E-04 0.750E-06
 gam= 0.185 trial= 0.641  step= 0.580 mean= 0.641
 gam= 0.222 g(H,U,f)=  0.762E-05 0.133E-05 0.311E-18 ort(H,U,f) =-0.224E-05 0.246E-05 0.617E-18
CGA:   5    -0.296925629684E+03   -0.11743E-04   -0.11750E-04  1216   0.895E-05 0.222E-06
 gam= 0.222 trial= 0.638  step= 0.708 mean= 0.638
 gam= 0.301 g(H,U,f)=  0.236E-05 0.340E-06 0.196E-18 ort(H,U,f) =-0.914E-06 0.913E-06 0.356E-18
CGA:   6    -0.296925632870E+03   -0.31860E-05   -0.31859E-05  1216   0.270E-05-0.326E-09
 gam= 0.301 trial= 0.641  step= 0.746 mean= 0.641
 gam= 0.301 g(H,U,f)=  0.750E-06 0.625E-07 0.322E-19 ort(H,U,f) =-0.197E-06 0.250E-06 0.123E-18
CGA:   7    -0.296925633878E+03   -0.10079E-05   -0.10049E-05  1216   0.812E-06 0.530E-07
 gam= 0.301 trial= 0.646  step= 0.708 mean= 0.646
 gam= 0.222 g(H,U,f)=  0.175E-06 0.558E-08 0.531E-20 ort(H,U,f) = 0.987E-08 0.355E-07 0.281E-19
CGA:   8    -0.296925634173E+03   -0.29433E-06   -0.29314E-06  1216   0.181E-06 0.454E-07
 gam= 0.222 trial= 0.649  step= 0.748 mean= 0.649
 final diagonalization
 343 F= -.29692563E+03 E0= -.29692563E+03  d E =-.263565E-04
 trial-energy change:   -0.000026  1 .order   -0.000026   -0.000032   -0.000021
 step:   0.6622(harm=  0.6622)  dis= 0.00276  next Energy=  -296.925653 (dE=-0.456E-04)
 bond charge predicted
 wavefunctions rotated
       N       E                     dE             d eps       ncg     rms          ort
 gam= 0.000 g(H,U,f)=  0.164E-01 0.195E-03 0.233E-17 ort(H,U,f) = 0.000E+00 0.000E+00 0.000E+00
SDA:   1    -0.296918927526E+03    0.67064E-02    0.00000E+00  1216   0.166E-01 0.000E+00
 gam= 0.000 trial= 0.654  step= 0.643 mean= 0.654
 gam= 0.259 g(H,U,f)=  0.422E-02 0.846E-04 0.160E-16 ort(H,U,f) = 0.101E-03-0.111E-03-0.618E-17
CGA:   2    -0.296924264095E+03   -0.53366E-02   -0.53365E-02  1216   0.430E-02-0.100E-04
 gam= 0.259 trial= 0.654  step= 0.531 mean= 0.654
 gam= 0.173 g(H,U,f)=  0.723E-03 0.224E-04 0.883E-17 ort(H,U,f) =-0.119E-04 0.130E-04 0.106E-16
CGA:   3    -0.296925406424E+03   -0.11423E-02   -0.11424E-02  1216   0.746E-03 0.112E-05
 gam= 0.173 trial= 0.648  step= 0.511 mean= 0.648
 gam= 0.186 g(H,U,f)=  0.129E-03 0.104E-04 0.143E-17 ort(H,U,f) =-0.142E-04 0.156E-04 0.430E-17
CGA:   4    -0.296925596892E+03   -0.19047E-03   -0.19056E-03  1216   0.139E-03 0.138E-05
 gam= 0.186 trial= 0.641  step= 0.579 mean= 0.641
 gam= 0.220 g(H,U,f)=  0.261E-04 0.452E-05 0.873E-18 ort(H,U,f) =-0.796E-05 0.838E-05 0.174E-17
CGA:   5    -0.296925637218E+03   -0.40327E-04   -0.40339E-04  1216   0.306E-04 0.414E-06
 gam= 0.220 trial= 0.638  step= 0.706 mean= 0.638
 gam= 0.298 g(H,U,f)=  0.796E-05 0.116E-05 0.552E-18 ort(H,U,f) =-0.311E-05 0.311E-05 0.997E-18
CGA:   6    -0.296925648045E+03   -0.10827E-04   -0.10827E-04  1216   0.913E-05 0.408E-08
 gam= 0.298 trial= 0.641  step= 0.752 mean= 0.641
 gam= 0.305 g(H,U,f)=  0.257E-05 0.213E-06 0.901E-19 ort(H,U,f) =-0.747E-06 0.847E-06 0.343E-18
CGA:   7    -0.296925651484E+03   -0.34392E-05   -0.34335E-05  1216   0.278E-05 0.101E-06
 gam= 0.305 trial= 0.647  step= 0.722 mean= 0.647
 gam= 0.226 g(H,U,f)=  0.611E-06 0.173E-07 0.137E-19 ort(H,U,f) =-0.252E-07 0.112E-06 0.761E-19
CGA:   8    -0.296925652503E+03   -0.10190E-05   -0.10158E-05  1216   0.628E-06 0.866E-07
 gam= 0.226 trial= 0.650  step= 0.736 mean= 0.650
 final diagonalization
 344 F= -.29692565E+03 E0= -.29692565E+03  d E =-.446873E-04
 curvature: -11.94 expect dE=-0.239E-02 dE for cont linesearch -0.194E-07
 trial: gam= 1.38953 g(F)=  0.191E-03 g(S)=  0.920E-05 ort =-0.284E-05 (trialstep = 0.162E+00)
 search vector abs. value=  0.979E-02
 bond charge predicted
 wavefunctions rotated
       N       E                     dE             d eps       ncg     rms          ort
 gam= 0.000 g(H,U,f)=  0.475E-02 0.531E-04 0.851E-18 ort(H,U,f) = 0.000E+00 0.000E+00 0.000E+00
SDA:   1    -0.296923720284E+03    0.19312E-02    0.00000E+00  1216   0.480E-02 0.000E+00
 gam= 0.000 trial= 0.655  step= 0.647 mean= 0.655
 gam= 0.260 g(H,U,f)=  0.123E-02 0.244E-04 0.753E-17 ort(H,U,f) = 0.232E-04-0.313E-04-0.254E-17
CGA:   2    -0.296925274380E+03   -0.15541E-02   -0.15541E-02  1216   0.125E-02-0.815E-05
 gam= 0.260 trial= 0.654  step= 0.532 mean= 0.654
 gam= 0.174 g(H,U,f)=  0.211E-03 0.715E-05 0.421E-17 ort(H,U,f) =-0.357E-05 0.423E-05 0.512E-17
CGA:   3    -0.296925606416E+03   -0.33204E-03   -0.33207E-03  1216   0.218E-03 0.659E-06
 gam= 0.174 trial= 0.648  step= 0.511 mean= 0.648
 gam= 0.188 g(H,U,f)=  0.378E-04 0.313E-05 0.751E-18 ort(H,U,f) =-0.386E-05 0.490E-05 0.216E-17
CGA:   4    -0.296925662027E+03   -0.55612E-04   -0.55684E-04  1216   0.409E-04 0.105E-05
 gam= 0.188 trial= 0.641  step= 0.582 mean= 0.641
 gam= 0.227 g(H,U,f)=  0.795E-05 0.134E-05 0.451E-18 ort(H,U,f) =-0.222E-05 0.252E-05 0.896E-18
CGA:   5    -0.296925673997E+03   -0.11970E-04   -0.11979E-04  1216   0.929E-05 0.304E-06
 gam= 0.227 trial= 0.638  step= 0.716 mean= 0.638
 gam= 0.310 g(H,U,f)=  0.254E-05 0.340E-06 0.266E-18 ort(H,U,f) =-0.950E-06 0.929E-06 0.503E-18
CGA:   6    -0.296925677346E+03   -0.33489E-05   -0.33498E-05  1216   0.288E-05-0.208E-07
 gam= 0.310 trial= 0.642  step= 0.742 mean= 0.642
 gam= 0.299 g(H,U,f)=  0.804E-06 0.561E-07 0.425E-19 ort(H,U,f) =-0.177E-06 0.242E-06 0.169E-18
CGA:   7    -0.296925678415E+03   -0.10692E-05   -0.10662E-05  1216   0.860E-06 0.649E-07
 gam= 0.299 trial= 0.647  step= 0.699 mean= 0.647
 gam= 0.218 g(H,U,f)=  0.183E-06 0.518E-08 0.636E-20 ort(H,U,f) = 0.223E-07 0.334E-07 0.360E-19
CGA:   8    -0.296925678724E+03   -0.30860E-06   -0.30758E-06  1216   0.188E-06 0.557E-07
 gam= 0.218 trial= 0.650  step= 0.768 mean= 0.650
 final diagonalization
 345 F= -.29692568E+03 E0= -.29692568E+03  d E =-.262205E-04
 trial-energy change:   -0.000026  1 .order   -0.000026   -0.000032   -0.000020
 step:   0.4267(harm=  0.4267)  dis= 0.00247  next Energy=  -296.925694 (dE=-0.418E-04)
 bond charge predicted
 wavefunctions rotated
       N       E                     dE             d eps       ncg     rms          ort
 gam= 0.000 g(H,U,f)=  0.128E-01 0.143E-03 0.191E-17 ort(H,U,f) = 0.000E+00 0.000E+00 0.000E+00
SDA:   1    -0.296920438715E+03    0.52397E-02    0.00000E+00  1216   0.129E-01 0.000E+00
 gam= 0.000 trial= 0.656  step= 0.647 mean= 0.656
 gam= 0.260 g(H,U,f)=  0.329E-02 0.651E-04 0.182E-16 ort(H,U,f) = 0.709E-04-0.840E-04-0.603E-17
CGA:   2    -0.296924609200E+03   -0.41705E-02   -0.41704E-02  1216   0.335E-02-0.132E-04
 gam= 0.260 trial= 0.655  step= 0.533 mean= 0.655
 gam= 0.175 g(H,U,f)=  0.566E-03 0.191E-04 0.973E-17 ort(H,U,f) =-0.101E-04 0.112E-04 0.120E-16
CGA:   3    -0.296925500695E+03   -0.89149E-03   -0.89156E-03  1216   0.585E-03 0.109E-05
 gam= 0.175 trial= 0.649  step= 0.511 mean= 0.649
 gam= 0.189 g(H,U,f)=  0.102E-03 0.839E-05 0.176E-17 ort(H,U,f) =-0.114E-04 0.131E-04 0.507E-17
CGA:   4    -0.296925650039E+03   -0.14934E-03   -0.14946E-03  1216   0.111E-03 0.170E-05
 gam= 0.189 trial= 0.642  step= 0.582 mean= 0.642
 gam= 0.225 g(H,U,f)=  0.213E-04 0.358E-05 0.105E-17 ort(H,U,f) =-0.624E-05 0.674E-05 0.208E-17
CGA:   5    -0.296925682293E+03   -0.32254E-04   -0.32270E-04  1216   0.249E-04 0.505E-06
 gam= 0.225 trial= 0.639  step= 0.712 mean= 0.639
 gam= 0.306 g(H,U,f)=  0.672E-05 0.920E-06 0.614E-18 ort(H,U,f) =-0.253E-05 0.249E-05 0.116E-17
CGA:   6    -0.296925691207E+03   -0.89141E-05   -0.89154E-05  1216   0.764E-05-0.321E-07
 gam= 0.306 trial= 0.643  step= 0.748 mean= 0.643
 gam= 0.302 g(H,U,f)=  0.216E-05 0.151E-06 0.985E-19 ort(H,U,f) =-0.537E-06 0.648E-06 0.389E-18
CGA:   7    -0.296925694066E+03   -0.28588E-05   -0.28533E-05  1216   0.231E-05 0.110E-06
 gam= 0.302 trial= 0.648  step= 0.713 mean= 0.648
 gam= 0.221 g(H,U,f)=  0.497E-06 0.129E-07 0.138E-19 ort(H,U,f) = 0.103E-07 0.844E-07 0.807E-19
CGA:   8    -0.296925694904E+03   -0.83761E-06   -0.83432E-06  1216   0.510E-06 0.947E-07
 gam= 0.221 trial= 0.651  step= 0.747 mean= 0.651
 final diagonalization
 346 F= -.29692569E+03 E0= -.29692569E+03  d E =-.424005E-04
 curvature: -10.65 expect dE=-0.833E-03 dE for cont linesearch -0.185E-08
 trial: gam= 0.37789 g(F)=  0.751E-04 g(S)=  0.303E-05 ort =-0.130E-05 (trialstep = 0.215E+00)
 search vector abs. value=  0.148E-02
 bond charge predicted
 wavefunctions rotated
       N       E                     dE             d eps       ncg     rms          ort
 gam= 0.000 g(H,U,f)=  0.130E-02 0.169E-04 0.265E-18 ort(H,U,f) = 0.000E+00 0.000E+00 0.000E+00
SDA:   1    -0.296925165534E+03    0.52853E-03    0.00000E+00  1216   0.132E-02 0.000E+00
 gam= 0.000 trial= 0.656  step= 0.649 mean= 0.656
 gam= 0.267 g(H,U,f)=  0.344E-03 0.809E-05 0.161E-17 ort(H,U,f) = 0.804E-05-0.106E-04-0.654E-18
CGA:   2    -0.296925593747E+03   -0.42821E-03   -0.42820E-03  1216   0.352E-03-0.261E-05
 gam= 0.267 trial= 0.656  step= 0.530 mean= 0.656
 gam= 0.176 g(H,U,f)=  0.601E-04 0.201E-05 0.618E-18 ort(H,U,f) =-0.129E-05 0.141E-05 0.893E-18
CGA:   3    -0.296925686989E+03   -0.93242E-04   -0.93250E-04  1216   0.621E-04 0.120E-06
 gam= 0.176 trial= 0.649  step= 0.514 mean= 0.649
 gam= 0.186 g(H,U,f)=  0.106E-04 0.904E-06 0.102E-18 ort(H,U,f) =-0.971E-06 0.135E-05 0.316E-18
CGA:   4    -0.296925702929E+03   -0.15939E-04   -0.15965E-04  1216   0.115E-04 0.375E-06
 gam= 0.186 trial= 0.643  step= 0.589 mean= 0.643
 gam= 0.229 g(H,U,f)=  0.227E-05 0.371E-06 0.732E-19 ort(H,U,f) =-0.562E-06 0.712E-06 0.136E-18
CGA:   5    -0.296925706337E+03   -0.34080E-05   -0.34122E-05  1216   0.264E-05 0.149E-06
 gam= 0.229 trial= 0.640  step= 0.717 mean= 0.640
 gam= 0.312 g(H,U,f)=  0.734E-06 0.913E-07 0.353E-19 ort(H,U,f) =-0.231E-06 0.256E-06 0.726E-19
CGA:   6    -0.296925707297E+03   -0.96004E-06   -0.95920E-06  1216   0.825E-06 0.249E-07
 gam= 0.312 trial= 0.644  step= 0.738 mean= 0.644
 gam= 0.299 g(H,U,f)=  0.229E-06 0.179E-07 0.424E-20 ort(H,U,f) =-0.438E-07 0.696E-07 0.201E-19
CGA:   7    -0.296925707606E+03   -0.30868E-06   -0.30734E-06  1216   0.247E-06 0.258E-07
 gam= 0.299 trial= 0.649  step= 0.688 mean= 0.649
 gam= 0.218 g(H,U,f)=  0.522E-07 0.157E-08 0.594E-21 ort(H,U,f) = 0.106E-07 0.904E-08 0.384E-20
CGA:   8    -0.296925707693E+03   -0.87831E-07   -0.87569E-07  1216   0.537E-07 0.197E-07
 gam= 0.218 trial= 0.651  step= 0.757 mean= 0.651
 final diagonalization
 347 F= -.29692571E+03 E0= -.29692571E+03  d E =-.127895E-04
 trial-energy change:   -0.000013  1 .order   -0.000013   -0.000017   -0.000009
 step:   0.4438(harm=  0.4438)  dis= 0.00103  next Energy=  -296.925712 (dE=-0.172E-04)
 reached required accuracy - stopping structural energy minimisation
Note: The following floating-point exceptions are signalling: IEEE_INVALID_FLAG
Note: The following floating-point exceptions are signalling: IEEE_INVALID_FLAG
Note: The following floating-point exceptions are signalling: IEEE_INVALID_FLAG
Note: The following floating-point exceptions are signalling: IEEE_INVALID_FLAG
Note: The following floating-point exceptions are signalling: IEEE_INVALID_FLAG
Note: The following floating-point exceptions are signalling: IEEE_INVALID_FLAG
Note: The following floating-point exceptions are signalling: IEEE_INVALID_FLAG
Note: The following floating-point exceptions are signalling: IEEE_INVALID_FLAG
Note: The following floating-point exceptions are signalling: IEEE_INVALID_FLAG
Note: The following floating-point exceptions are signalling: IEEE_INVALID_FLAG
Note: The following floating-point exceptions are signalling: IEEE_INVALID_FLAG
Note: The following floating-point exceptions are signalling: IEEE_INVALID_FLAG
Note: The following floating-point exceptions are signalling: IEEE_INVALID_FLAG
Note: The following floating-point exceptions are signalling: IEEE_INVALID_FLAG
Note: The following floating-point exceptions are signalling: IEEE_INVALID_FLAG
Note: The following floating-point exceptions are signalling: IEEE_INVALID_FLAG
Note: The following floating-point exceptions are signalling: IEEE_INVALID_FLAG
Note: The following floating-point exceptions are signalling: IEEE_INVALID_FLAG
Note: The following floating-point exceptions are signalling: IEEE_INVALID_FLAG
Note: The following floating-point exceptions are signalling: IEEE_INVALID_FLAG
Note: The following floating-point exceptions are signalling: IEEE_INVALID_FLAG
Note: The following floating-point exceptions are signalling: IEEE_INVALID_FLAG
Note: The following floating-point exceptions are signalling: IEEE_INVALID_FLAG
Note: The following floating-point exceptions are signalling: IEEE_INVALID_FLAG
Note: The following floating-point exceptions are signalling: IEEE_INVALID_FLAG
Note: The following floating-point exceptions are signalling: IEEE_INVALID_FLAG
Note: The following floating-point exceptions are signalling: IEEE_INVALID_FLAG
Note: The following floating-point exceptions are signalling: IEEE_INVALID_FLAG
Note: The following floating-point exceptions are signalling: IEEE_INVALID_FLAG IEEE_DIVIDE_BY_ZERO
Note: The following floating-point exceptions are signalling: IEEE_INVALID_FLAG
Note: The following floating-point exceptions are signalling: IEEE_INVALID_FLAG
Note: The following floating-point exceptions are signalling: IEEE_INVALID_FLAG
Note: The following floating-point exceptions are signalling: IEEE_INVALID_FLAG
Note: The following floating-point exceptions are signalling: IEEE_INVALID_FLAG
Note: The following floating-point exceptions are signalling: IEEE_INVALID_FLAG
Note: The following floating-point exceptions are signalling: IEEE_INVALID_FLAG
Note: The following floating-point exceptions are signalling: IEEE_INVALID_FLAG
Note: The following floating-point exceptions are signalling: IEEE_INVALID_FLAG
Note: The following floating-point exceptions are signalling: IEEE_INVALID_FLAG
Note: The following floating-point exceptions are signalling: IEEE_INVALID_FLAG
Note: The following floating-point exceptions are signalling: IEEE_INVALID_FLAG
Note: The following floating-point exceptions are signalling: IEEE_INVALID_FLAG
Note: The following floating-point exceptions are signalling: IEEE_INVALID_FLAG
Note: The following floating-point exceptions are signalling: IEEE_INVALID_FLAG
Note: The following floating-point exceptions are signalling: IEEE_INVALID_FLAG
Note: The following floating-point exceptions are signalling: IEEE_INVALID_FLAG
Note: The following floating-point exceptions are signalling: IEEE_INVALID_FLAG
Note: The following floating-point exceptions are signalling: IEEE_INVALID_FLAG
Note: The following floating-point exceptions are signalling: IEEE_INVALID_FLAG
Note: The following floating-point exceptions are signalling: IEEE_INVALID_FLAG
Note: The following floating-point exceptions are signalling: IEEE_INVALID_FLAG
Note: The following floating-point exceptions are signalling: IEEE_INVALID_FLAG
Note: The following floating-point exceptions are signalling: IEEE_INVALID_FLAG
Note: The following floating-point exceptions are signalling: IEEE_INVALID_FLAG
Note: The following floating-point exceptions are signalling: IEEE_INVALID_FLAG IEEE_DIVIDE_BY_ZERO
Note: The following floating-point exceptions are signalling: IEEE_INVALID_FLAG
Note: The following floating-point exceptions are signalling: IEEE_INVALID_FLAG
Note: The following floating-point exceptions are signalling: IEEE_INVALID_FLAG
Note: The following floating-point exceptions are signalling: IEEE_INVALID_FLAG
Note: The following floating-point exceptions are signalling: IEEE_INVALID_FLAG
Note: The following floating-point exceptions are signalling: IEEE_INVALID_FLAG
Note: The following floating-point exceptions are signalling: IEEE_INVALID_FLAG
Note: The following floating-point exceptions are signalling: IEEE_INVALID_FLAG
Note: The following floating-point exceptions are signalling: IEEE_INVALID_FLAG
