<?xml version="1.0" encoding="ISO-8859-1"?>
<modeling>
 <generator>
  <i name="program" type="string">vasp </i>
  <i name="version" type="string">6.3.1  </i>
  <i name="subversion" type="string">04May22 (build May 25 2022 13:42:54) complex                          parallel </i>
  <i name="platform" type="string">HPECrayEX_GCC </i>
  <i name="date" type="string">2022 09 14 </i>
  <i name="time" type="string">17:57:02 </i>
 </generator>
 <incar>
  <i type="string" name="SYSTEM">tetra-FASnI3</i>
  <i type="int" name="ISTART">     0</i>
  <i type="string" name="PREC">Accurate</i>
  <i type="string" name="ALGO">ALL</i>
  <i type="int" name="ISPIN">     1</i>
  <i type="int" name="NELM">   200</i>
  <i type="int" name="NELMIN">     8</i>
  <i type="int" name="IBRION">     2</i>
  <i name="EDIFF">      0.00000500</i>
  <i name="EDIFFG">     -0.01000000</i>
  <i type="int" name="NSW">  1000</i>
  <i type="int" name="ISIF">     3</i>
  <i type="int" name="ISYM">     0</i>
  <i name="ENCUT">    700.00000000</i>
  <i type="logical" name="LREAL"> F  </i>
  <i type="int" name="ISMEAR">     0</i>
  <i name="SIGMA">      0.05000000</i>
  <i type="logical" name="LWAVE"> F  </i>
  <i type="logical" name="LCHARG"> F  </i>
  <i type="logical" name="LASPH"> T  </i>
  <i type="string" name="METAGGA">R2SCAN</i>
 </incar>
 <primitive_cell>
  <structure name="primitive_cell" >
   <crystal>
    <varray name="basis" >
     <v>       8.88210000       0.00000000       0.00000000 </v>
     <v>       0.00000000       8.88210000       0.00000000 </v>
     <v>       0.00000000       0.00000000       6.26980000 </v>
    </varray>
    <i name="volume">    494.63518323 </i>
    <varray name="rec_basis" >
     <v>       0.11258599       0.00000000       0.00000000 </v>
     <v>       0.00000000       0.11258599       0.00000000 </v>
     <v>       0.00000000       0.00000000       0.15949472 </v>
    </varray>
   </crystal>
   <varray name="positions" >
    <v>       0.51707794       0.96206300       0.96758016 </v>
    <v>       0.97193638       0.46237146       0.02108436 </v>
    <v>       0.37445817       0.00778529       0.21447212 </v>
    <v>       0.53829038       0.18859092       0.01775890 </v>
    <v>       0.64699157       0.11411337       0.81542468 </v>
    <v>       0.38112038       0.82219126       0.12991660 </v>
    <v>       0.55793314       0.87128359       0.86700977 </v>
    <v>       0.97067468       0.69017037       0.97210614 </v>
    <v>       0.14089051       0.49962711       0.80736312 </v>
    <v>       0.11427668       0.31449439       0.88675215 </v>
    <v>       0.83759702       0.62173631       0.14767546 </v>
    <v>       0.91539716       0.37388394       0.10969840 </v>
    <v>       0.27770000       0.22230000       0.50000000 </v>
    <v>       0.72230000       0.77770000       0.50000000 </v>
    <v>       0.77770000       0.27770000       0.50000000 </v>
    <v>       0.22230000       0.72230000       0.50000000 </v>
    <v>       0.00000000       0.00000000       0.00000000 </v>
    <v>       0.50000000       0.50000000       0.00000000 </v>
    <v>       0.57301322       0.09623734       0.93602928 </v>
    <v>       0.41557288       0.92980777       0.11088943 </v>
    <v>       0.08563050       0.42423553       0.90068080 </v>
    <v>       0.92229739       0.59986600       0.04391024 </v>
    <v>       0.00000000       0.00000000       0.50000000 </v>
    <v>       0.50000000       0.50000000       0.50000000 </v>
   </varray>
  </structure>
  <varray name="primitive_index" >
   <v type="int" >        1 </v>
   <v type="int" >        2 </v>
   <v type="int" >        3 </v>
   <v type="int" >        4 </v>
   <v type="int" >        5 </v>
   <v type="int" >        6 </v>
   <v type="int" >        7 </v>
   <v type="int" >        8 </v>
   <v type="int" >        9 </v>
   <v type="int" >       10 </v>
   <v type="int" >       11 </v>
   <v type="int" >       12 </v>
   <v type="int" >       13 </v>
   <v type="int" >       14 </v>
   <v type="int" >       15 </v>
   <v type="int" >       16 </v>
   <v type="int" >       17 </v>
   <v type="int" >       18 </v>
   <v type="int" >       19 </v>
   <v type="int" >       20 </v>
   <v type="int" >       21 </v>
   <v type="int" >       22 </v>
   <v type="int" >       23 </v>
   <v type="int" >       24 </v>
  </varray>
 </primitive_cell>
 <kpoints>
  <generation param="Gamma">
   <v type="int" name="divisions">       3        3        4 </v>
   <v name="usershift">      0.00000000       0.00000000       0.00000000 </v>
   <v name="genvec1">      0.33333333       0.00000000       0.00000000 </v>
   <v name="genvec2">      0.00000000       0.33333333       0.00000000 </v>
   <v name="genvec3">      0.00000000       0.00000000       0.25000000 </v>
   <v name="shift">      0.00000000       0.00000000       0.00000000 </v>
  </generation>
  <varray name="kpointlist" >
   <v>       0.00000000       0.00000000       0.00000000 </v>
   <v>       0.33333333       0.00000000       0.00000000 </v>
   <v>       0.00000000       0.33333333       0.00000000 </v>
   <v>       0.33333333       0.33333333       0.00000000 </v>
   <v>      -0.33333333       0.33333333       0.00000000 </v>
   <v>       0.00000000       0.00000000       0.25000000 </v>
   <v>       0.33333333       0.00000000       0.25000000 </v>
   <v>       0.00000000       0.33333333       0.25000000 </v>
   <v>      -0.33333333       0.00000000       0.25000000 </v>
   <v>       0.00000000      -0.33333333       0.25000000 </v>
   <v>       0.33333333       0.33333333       0.25000000 </v>
   <v>      -0.33333333       0.33333333       0.25000000 </v>
   <v>      -0.33333333      -0.33333333       0.25000000 </v>
   <v>       0.33333333      -0.33333333       0.25000000 </v>
   <v>       0.00000000       0.00000000       0.50000000 </v>
   <v>       0.33333333       0.00000000       0.50000000 </v>
   <v>       0.00000000       0.33333333       0.50000000 </v>
   <v>       0.33333333       0.33333333       0.50000000 </v>
   <v>      -0.33333333       0.33333333       0.50000000 </v>
  </varray>
  <varray name="weights" >
   <v>       0.02777778 </v>
   <v>       0.05555556 </v>
   <v>       0.05555556 </v>
   <v>       0.05555556 </v>
   <v>       0.05555556 </v>
   <v>       0.05555556 </v>
   <v>       0.05555556 </v>
   <v>       0.05555556 </v>
   <v>       0.05555556 </v>
   <v>       0.05555556 </v>
   <v>       0.05555556 </v>
   <v>       0.05555556 </v>
   <v>       0.05555556 </v>
   <v>       0.05555556 </v>
   <v>       0.02777778 </v>
   <v>       0.05555556 </v>
   <v>       0.05555556 </v>
   <v>       0.05555556 </v>
   <v>       0.05555556 </v>
  </varray>
 </kpoints>
 <parameters>
  <separator name="general" >
   <i type="string" name="SYSTEM">tetra-FASnI3</i>
   <i type="logical" name="LCOMPAT"> F  </i>
  </separator>
  <separator name="electronic" >
   <i type="string" name="PREC">accura</i>
   <i name="ENMAX">    700.00000000</i>
   <i name="ENAUG">    644.87300000</i>
   <i name="EDIFF">      0.00000500</i>
   <i type="int" name="IALGO">    58</i>
   <i type="int" name="IWAVPR">    11</i>
   <i type="int" name="NBANDS">    64</i>
   <i type="int" name="NBANDSLOW">    -1</i>
   <i type="int" name="NBANDSHIGH">    -1</i>
   <i name="NELECT">     88.00000000</i>
   <i type="int" name="TURBO">     0</i>
   <i type="int" name="IRESTART">     0</i>
   <i type="int" name="NREBOOT">     0</i>
   <i type="int" name="NMIN">     0</i>
   <i name="EREF">      0.00000000</i>
   <separator name="electronic smearing" >
    <i type="int" name="ISMEAR">     0</i>
    <i name="SIGMA">      0.05000000</i>
    <i name="KSPACING">      0.50000000</i>
    <i type="logical" name="KGAMMA"> T  </i>
    <i type="logical" name="KBLOWUP"> T  </i>
   </separator>
   <separator name="electronic projectors" >
    <i type="logical" name="LREAL"> F  </i>
    <v name="ROPT">      0.00000000      0.00000000      0.00000000      0.00000000      0.00000000</v>
    <i type="int" name="LMAXPAW">  -100</i>
    <i type="int" name="LMAXMIX">     2</i>
    <i type="logical" name="NLSPLINE"> F  </i>
   </separator>
   <separator name="electronic startup" >
    <i type="int" name="ISTART">     0</i>
    <i type="int" name="ICHARG">     2</i>
    <i type="int" name="INIWAV">     1</i>
   </separator>
   <separator name="electronic spin" >
    <i type="int" name="ISPIN">     1</i>
    <i type="logical" name="LNONCOLLINEAR"> F  </i>
    <v name="MAGMOM">      1.00000000      1.00000000      1.00000000      1.00000000      1.00000000      1.00000000      1.00000000      1.00000000      1.00000000      1.00000000      1.00000000      1.00000000      1.00000000      1.00000000      1.00000000      1.00000000      1.00000000      1.00000000      1.00000000      1.00000000
      1.00000000      1.00000000      1.00000000      1.00000000</v>
    <i name="NUPDOWN">     -1.00000000</i>
    <i type="logical" name="LSORBIT"> F  </i>
    <v name="SAXIS">      0.00000000      0.00000000      1.00000000</v>
    <i type="logical" name="LSPIRAL"> F  </i>
    <v name="QSPIRAL">      0.00000000      0.00000000      0.00000000</v>
    <i type="logical" name="LZEROZ"> F  </i>
   </separator>
   <separator name="electronic exchange-correlation" >
    <i type="logical" name="LASPH"> T  </i>
    <i type="logical" name="LMETAGGA"> F  </i>
   </separator>
   <separator name="electronic convergence" >
    <i type="int" name="NELM">   200</i>
    <i type="int" name="NELMDL">    -5</i>
    <i type="int" name="NELMIN">     8</i>
    <i name="ENINI">    700.00000000</i>
    <separator name="electronic convergence detail" >
     <i type="logical" name="LDIAG"> T  </i>
     <i type="logical" name="LSUBROT"> F  </i>
     <i name="WEIMIN">      0.00100000</i>
     <i name="EBREAK">      0.00000002</i>
     <i name="DEPER">      0.30000000</i>
     <i type="int" name="NRMM">     4</i>
     <i name="TIME">      0.40000000</i>
    </separator>
   </separator>
   <separator name="electronic mixer" >
    <i name="AMIX">      0.40000000</i>
    <i name="BMIX">      1.00000000</i>
    <i name="AMIN">      0.10000000</i>
    <i name="AMIX_MAG">      1.60000000</i>
    <i name="BMIX_MAG">      1.00000000</i>
    <separator name="electronic mixer details" >
     <i type="int" name="IMIX">     4</i>
     <i type="logical" name="MIXFIRST"> F  </i>
     <i type="int" name="MAXMIX">   -45</i>
     <i name="WC">    100.00000000</i>
     <i type="int" name="INIMIX">     1</i>
     <i type="int" name="MIXPRE">     1</i>
     <i type="int" name="MREMOVE">     5</i>
    </separator>
   </separator>
   <separator name="electronic dipolcorrection" >
    <i type="logical" name="LDIPOL"> F  </i>
    <i type="logical" name="LMONO"> F  </i>
    <i type="int" name="IDIPOL">     0</i>
    <i name="EPSILON">      1.00000000</i>
    <v name="DIPOL">   -100.00000000   -100.00000000   -100.00000000</v>
    <i name="EFIELD">      0.00000000</i>
   </separator>
  </separator>
  <separator name="grids" >
   <i type="int" name="NGX">    80</i>
   <i type="int" name="NGY">    80</i>
   <i type="int" name="NGZ">    54</i>
   <i type="int" name="NGXF">   160</i>
   <i type="int" name="NGYF">   160</i>
   <i type="int" name="NGZF">   108</i>
   <i type="logical" name="ADDGRID"> F  </i>
  </separator>
  <separator name="ionic" >
   <i type="int" name="NSW">  1000</i>
   <i type="int" name="IBRION">     2</i>
   <i type="int" name="MDALGO">     0</i>
   <i type="int" name="ISIF">     3</i>
   <i name="PSTRESS">      0.00000000</i>
   <i name="EDIFFG">     -0.01000000</i>
   <i type="int" name="NFREE">     1</i>
   <i name="POTIM">      0.50000000</i>
   <i name="SMASS">     -3.00000000</i>
   <i name="SCALEE">      1.00000000</i>
  </separator>
  <separator name="ionic md" >
   <i name="TEBEG">      0.00010000</i>
   <i name="TEEND">      0.00010000</i>
   <i type="int" name="NBLOCK">     1</i>
   <i type="int" name="KBLOCK">  1000</i>
   <i type="int" name="NPACO">   256</i>
   <i name="APACO">     10.00000000</i>
  </separator>
  <separator name="symmetry" >
   <i type="int" name="ISYM">     0</i>
   <i name="SYMPREC">      0.00001000</i>
  </separator>
  <separator name="dos" >
   <i type="int" name="LORBIT">     0</i>
   <v name="RWIGS">     -1.00000000     -1.00000000     -1.00000000     -1.00000000     -1.00000000</v>
   <i type="int" name="NEDOS">   301</i>
   <i name="EMIN">     10.00000000</i>
   <i name="EMAX">    -10.00000000</i>
   <i name="EFERMI">      0.00000000</i>
  </separator>
  <separator name="writing" >
   <i type="int" name="NWRITE">     2</i>
   <i type="logical" name="LWAVE"> F  </i>
   <i type="logical" name="LDOWNSAMPLE"> F  </i>
   <i type="logical" name="LCHARG"> F  </i>
   <i type="logical" name="LPARD"> F  </i>
   <i type="logical" name="LVTOT"> F  </i>
   <i type="logical" name="LVHAR"> F  </i>
   <i type="logical" name="LELF"> F  </i>
   <i type="logical" name="LOPTICS"> F  </i>
   <v name="STM">      0.00000000      0.00000000      0.00000000      0.00000000      0.00000000      0.00000000      0.00000000</v>
  </separator>
  <separator name="performance" >
   <i type="int" name="NPAR">     8</i>
   <i type="int" name="NSIM">     4</i>
   <i type="int" name="NBLK">    -1</i>
   <i type="logical" name="LPLANE"> T  </i>
   <i type="logical" name="LSCALAPACK"> T  </i>
   <i type="logical" name="LSCAAWARE"> F  </i>
   <i type="logical" name="LSCALU"> F  </i>
   <i type="logical" name="LASYNC"> F  </i>
   <i type="logical" name="LORBITALREAL"> F  </i>
  </separator>
  <separator name="miscellaneous" >
   <i type="int" name="IDIOT">     3</i>
   <i type="int" name="PHON_NSTRUCT">    -1</i>
   <i type="logical" name="LMUSIC"> F  </i>
   <v name="POMASS">     12.01100000      1.00000000    126.90400000     14.00100000    118.71000000</v>
   <v name="DARWINR">      0.00000000      0.00000000      0.00000000      0.00000000      0.00000000</v>
   <v name="DARWINV">      1.00000000      1.00000000      1.00000000      1.00000000      1.00000000</v>
   <i type="logical" name="LCORR"> T  </i>
  </separator>
  <i type="logical" name="GGA_COMPAT"> T  </i>
  <i type="logical" name="LBERRY"> F  </i>
  <i type="int" name="ICORELEVEL">     0</i>
  <i type="logical" name="LDAU"> F  </i>
  <i type="int" name="I_CONSTRAINED_M">     0</i>
  <separator name="electronic exchange-correlation" >
   <i type="string" name="GGA">--</i>
   <i type="int" name="VOSKOWN">     0</i>
   <i type="logical" name="LHFCALC"> F  </i>
   <i type="string" name="PRECFOCK"></i>
   <i type="logical" name="LSYMGRAD"> F  </i>
   <i type="logical" name="LHFONE"> F  </i>
   <i type="logical" name="LRHFCALC"> F  </i>
   <i type="logical" name="LTHOMAS"> F  </i>
   <i type="logical" name="LMODELHF"> F  </i>
   <i type="logical" name="LFOCKACE"> F  </i>
   <i name="ENCUT4O">     -1.00000000</i>
   <i type="int" name="EXXOEP">     0</i>
   <i type="int" name="FOURORBIT">     0</i>
   <i name="AEXX">      0.00000000</i>
   <i name="HFALPHA">      0.00000000</i>
   <i name="MCALPHA">      0.00000000</i>
   <i name="ALDAX">      1.00000000</i>
   <i name="AGGAX">      1.00000000</i>
   <i name="ALDAC">      1.00000000</i>
   <i name="AGGAC">      1.00000000</i>
   <i type="int" name="NKREDX">     1</i>
   <i type="int" name="NKREDY">     1</i>
   <i type="int" name="NKREDZ">     1</i>
   <i type="logical" name="SHIFTRED"> F  </i>
   <i type="logical" name="ODDONLY"> F  </i>
   <i type="logical" name="EVENONLY"> F  </i>
   <i type="int" name="LMAXFOCK">     0</i>
   <i type="int" name="NMAXFOCKAE">     0</i>
   <i type="logical" name="LFOCKAEDFT"> F  </i>
   <i name="HFSCREEN">      0.00000000</i>
   <i name="HFSCREENC">      0.00000000</i>
   <i type="int" name="NBANDSGWLOW">     0</i>
  </separator>
  <separator name="vdW DFT" >
   <i type="logical" name="LUSE_VDW"> F  </i>
   <i name="Zab_VDW">     -0.84910000</i>
   <i name="PARAM1">      0.12340000</i>
   <i name="PARAM2">      1.00000000</i>
   <i name="PARAM3">      0.00000000</i>
  </separator>
  <separator name="model GW" >
   <i type="int" name="MODEL_GW">     0</i>
   <i name="MODEL_EPS0">     12.36587958</i>
   <i name="MODEL_ALPHA">      1.00000000</i>
  </separator>
  <separator name="linear response parameters" >
   <i type="logical" name="LEPSILON"> F  </i>
   <i type="logical" name="LRPA"> F  </i>
   <i type="logical" name="LNABLA"> F  </i>
   <i type="logical" name="LVEL"> F  </i>
   <i name="CSHIFT">      0.10000000</i>
   <i name="OMEGAMAX">     -1.00000000</i>
   <i name="DEG_THRESHOLD">      0.00200000</i>
   <i name="RTIME">     -0.10000000</i>
   <i name="WPLASMAI">      0.00000000</i>
   <v name="DFIELD">      0.00000000      0.00000000      0.00000000</v>
   <v name="WPLASMA">      0.00000000      0.00000000      0.00000000      0.00000000      0.00000000      0.00000000      0.00000000      0.00000000      0.00000000</v>
  </separator>
  <separator name="orbital magnetization" >
   <i type="logical" name="NUCIND"> F  </i>
   <v name="MAGPOS">      0.00000000      0.00000000      0.00000000</v>
   <i type="logical" name="LNICSALL"> T  </i>
   <i type="logical" name="ORBITALMAG"> F  </i>
   <i type="logical" name="LMAGBLOCH"> F  </i>
   <i type="logical" name="LCHIMAG"> F  </i>
   <i type="logical" name="LGAUGE"> T  </i>
   <i type="int" name="MAGATOM">     0</i>
   <v name="MAGDIPOL">      0.00000000      0.00000000      0.00000000</v>
   <v name="AVECCONST">      0.00000000      0.00000000      0.00000000</v>
  </separator>
  <separator name="response functions" >
   <i type="logical" name="LFINITE_TEMPERATURE"> F  </i>
   <i type="logical" name="LADDER"> F  </i>
   <i type="logical" name="LRPAFORCE"> F  </i>
   <i type="logical" name="LFXC"> F  </i>
   <i type="logical" name="LHARTREE"> T  </i>
   <i type="int" name="IBSE">     0</i>
   <v type="int" name="KPOINT">    -1     0     0     0</v>
   <i type="logical" name="LTCTC"> F  </i>
   <i type="logical" name="LTCTE"> F  </i>
   <i type="logical" name="LTETE"> F  </i>
   <i type="logical" name="LTRIPLET"> F  </i>
   <i type="logical" name="LFXCEPS"> F  </i>
   <i type="logical" name="LFXHEG"> F  </i>
   <i type="int" name="NATURALO">     2</i>
   <i type="logical" name="LHOLEGF"> F  </i>
   <i type="logical" name="L2ORDER"> F  </i>
   <i type="logical" name="LDMP1"> F  </i>
   <i type="logical" name="LMP2LT"> F  </i>
   <i type="logical" name="LSMP2LT"> F  </i>
   <i type="logical" name="LGWLF"> F  </i>
   <i name="ENCUTGW">     -2.00000000</i>
   <i name="ENCUTGWSOFT">     -2.00000000</i>
   <i name="ENCUTLF">     -1.00000000</i>
   <i type="logical" name="LESF_SPLINES"> F  </i>
   <i type="int" name="LMAXMP2">    -1</i>
   <i name="SCISSOR">      0.00000000</i>
   <i type="int" name="NOMEGA">     0</i>
   <i type="int" name="NOMEGAR">     0</i>
   <i type="int" name="NBANDSGW">    -1</i>
   <i type="int" name="NBANDSO">    -1</i>
   <i type="int" name="NBANDSV">    -1</i>
   <i type="int" name="NELMGW">     1</i>
   <i type="int" name="NELMHF">     1</i>
   <i type="int" name="DIM">     3</i>
   <i type="int" name="IESPILON">     4</i>
   <i type="int" name="ANTIRES">     0</i>
   <i name="OMEGAMAX">    -30.00000000</i>
   <i name="OMEGAMIN">    -30.00000000</i>
   <i name="OMEGATL">   -200.00000000</i>
   <i type="int" name="OMEGAGRID">     0</i>
   <i name="CSHIFT">     -0.10000000</i>
   <i type="logical" name="LSELFENERGY"> F  </i>
   <i type="logical" name="LSPECTRAL"> F  </i>
   <i type="logical" name="LSPECTRALGW"> F  </i>
   <i type="logical" name="LSINGLES"> F  </i>
   <i type="logical" name="LFERMIGW"> F  </i>
   <i type="logical" name="ODDONLYGW"> F  </i>
   <i type="logical" name="EVENONLYGW"> F  </i>
   <i type="int" name="NKREDLFX">     1</i>
   <i type="int" name="NKREDLFY">     1</i>
   <i type="int" name="NKREDLFZ">     1</i>
   <i type="int" name="MAXMEM">  2800</i>
   <i type="int" name="TELESCOPE">     0</i>
   <i type="int" name="NTAUPAR">    -1</i>
   <i type="int" name="NOMEGAPAR">    -1</i>
   <i name="DAMP_NEWTON">      0.80000001</i>
   <i name="LAMBDA">      1.00000000</i>
  </separator>
  <separator name="External order field" >
   <i name="OFIELD_KAPPA">      0.00000000</i>
   <v name="OFIELD_K">      0.00000000      0.00000000      0.00000000</v>
   <i name="OFIELD_Q6_NEAR">      0.00000000</i>
   <i name="OFIELD_Q6_FAR">      0.00000000</i>
   <i name="OFIELD_A">      0.00000000</i>
  </separator>
  <separator name="optional k-points parameters" >
   <i type="int" name="KPOINTS_OPT_MODE">     1</i>
   <i type="logical" name="LKPOINTS_OPT"> F  </i>
  </separator>
 </parameters>
 <atominfo>
  <atoms>      24 </atoms>
  <types>       5 </types>
  <array name="atoms" >
   <dimension dim="1">ion</dimension>
   <field type="string">element</field>
   <field type="int">atomtype</field>
   <set>
    <rc><c>C </c><c>   1</c></rc>
    <rc><c>C </c><c>   1</c></rc>
    <rc><c>H </c><c>   2</c></rc>
    <rc><c>H </c><c>   2</c></rc>
    <rc><c>H </c><c>   2</c></rc>
    <rc><c>H </c><c>   2</c></rc>
    <rc><c>H </c><c>   2</c></rc>
    <rc><c>H </c><c>   2</c></rc>
    <rc><c>H </c><c>   2</c></rc>
    <rc><c>H </c><c>   2</c></rc>
    <rc><c>H </c><c>   2</c></rc>
    <rc><c>H </c><c>   2</c></rc>
    <rc><c>I </c><c>   3</c></rc>
    <rc><c>I </c><c>   3</c></rc>
    <rc><c>I </c><c>   3</c></rc>
    <rc><c>I </c><c>   3</c></rc>
    <rc><c>I </c><c>   3</c></rc>
    <rc><c>I </c><c>   3</c></rc>
    <rc><c>N </c><c>   4</c></rc>
    <rc><c>N </c><c>   4</c></rc>
    <rc><c>N </c><c>   4</c></rc>
    <rc><c>N </c><c>   4</c></rc>
    <rc><c>Sn</c><c>   5</c></rc>
    <rc><c>Sn</c><c>   5</c></rc>
   </set>
  </array>
  <array name="atomtypes" >
   <dimension dim="1">type</dimension>
   <field type="int">atomspertype</field>
   <field type="string">element</field>
   <field>mass</field>
   <field>valence</field>
   <field type="string">pseudopotential</field>
   <set>
    <rc><c>   2</c><c>C </c><c>     12.01100000</c><c>      4.00000000</c><c>  PAW_PBE C 08Apr2002                   </c></rc>
    <rc><c>  10</c><c>H </c><c>      1.00000000</c><c>      1.00000000</c><c>  PAW_PBE H 15Jun2001                   </c></rc>
    <rc><c>   6</c><c>I </c><c>    126.90400000</c><c>      7.00000000</c><c>  PAW_PBE I 08Apr2002                   </c></rc>
    <rc><c>   4</c><c>N </c><c>     14.00100000</c><c>      5.00000000</c><c>  PAW_PBE N 08Apr2002                   </c></rc>
    <rc><c>   2</c><c>Sn</c><c>    118.71000000</c><c>      4.00000000</c><c>  PAW_PBE Sn 08Apr2002                  </c></rc>
   </set>
  </array>
 </atominfo>
 <structure name="initialpos" >
  <crystal>
   <varray name="basis" >
    <v>       8.88210000       0.00000000       0.00000000 </v>
    <v>       0.00000000       8.88210000       0.00000000 </v>
    <v>       0.00000000       0.00000000       6.26980000 </v>
   </varray>
   <i name="volume">    494.63518323 </i>
   <varray name="rec_basis" >
    <v>       0.11258599       0.00000000       0.00000000 </v>
    <v>       0.00000000       0.11258599       0.00000000 </v>
    <v>       0.00000000       0.00000000       0.15949472 </v>
   </varray>
  </crystal>
  <varray name="positions" >
   <v>       0.51707794       0.96206300       0.96758016 </v>
   <v>       0.97193638       0.46237146       0.02108436 </v>
   <v>       0.37445817       0.00778529       0.21447212 </v>
   <v>       0.53829038       0.18859092       0.01775890 </v>
   <v>       0.64699157       0.11411337       0.81542468 </v>
   <v>       0.38112038       0.82219126       0.12991660 </v>
   <v>       0.55793314       0.87128359       0.86700977 </v>
   <v>       0.97067468       0.69017037       0.97210614 </v>
   <v>       0.14089051       0.49962711       0.80736312 </v>
   <v>       0.11427668       0.31449439       0.88675215 </v>
   <v>       0.83759702       0.62173631       0.14767546 </v>
   <v>       0.91539716       0.37388394       0.10969840 </v>
   <v>       0.27770000       0.22230000       0.50000000 </v>
   <v>       0.72230000       0.77770000       0.50000000 </v>
   <v>       0.77770000       0.27770000       0.50000000 </v>
   <v>       0.22230000       0.72230000       0.50000000 </v>
   <v>       0.00000000       0.00000000       0.00000000 </v>
   <v>       0.50000000       0.50000000       0.00000000 </v>
   <v>       0.57301322       0.09623734       0.93602928 </v>
   <v>       0.41557288       0.92980777       0.11088943 </v>
   <v>       0.08563050       0.42423553       0.90068080 </v>
   <v>       0.92229739       0.59986600       0.04391024 </v>
   <v>       0.00000000       0.00000000       0.50000000 </v>
   <v>       0.50000000       0.50000000       0.50000000 </v>
  </varray>
 </structure>
 <calculation>
  <scstep>
   <time name="total">    5.22    5.39</time>
   <energy>
    <i name="alphaZ">     58.39988875 </i>
    <i name="ewald">  -2319.68941247 </i>
    <i name="hartreedc">  -1046.82898017 </i>
    <i name="XCdc">    -86.44184515 </i>
    <i name="pawpsdc">   2967.97854685 </i>
    <i name="pawaedc">  -2815.24909770 </i>
    <i name="eentropy">     -0.00340286 </i>
    <i name="bandstr">     56.86022761 </i>
    <i name="atom">   3560.73399828 </i>
    <i name="e_fr_energy">    375.75992315 </i>
    <i name="e_wo_entrp">    375.76332601 </i>
    <i name="e_0_energy">    375.76162458 </i>
   </energy>
  </scstep>
  <scstep>
   <time name="total">    5.24    5.25</time>
   <energy>
    <i name="e_fr_energy">   -245.01168982 </i>
    <i name="e_wo_entrp">   -245.01106507 </i>
    <i name="e_0_energy">   -245.01137745 </i>
   </energy>
  </scstep>
  <scstep>
   <time name="total">    5.16    5.17</time>
   <energy>
    <i name="e_fr_energy">   -320.54822182 </i>
    <i name="e_wo_entrp">   -320.54795168 </i>
    <i name="e_0_energy">   -320.54808675 </i>
   </energy>
  </scstep>
  <scstep>
   <time name="total">    5.14    5.15</time>
   <energy>
    <i name="e_fr_energy">   -322.32581664 </i>
    <i name="e_wo_entrp">   -322.32534809 </i>
    <i name="e_0_energy">   -322.32558236 </i>
   </energy>
  </scstep>
  <scstep>
   <time name="total">    5.62    5.63</time>
   <energy>
    <i name="e_fr_energy">   -322.36864573 </i>
    <i name="e_wo_entrp">   -322.36815268 </i>
    <i name="e_0_energy">   -322.36839921 </i>
   </energy>
  </scstep>
  <scstep>
   <time name="total">    6.38    6.39</time>
   <energy>
    <i name="e_fr_energy">   -290.21474780 </i>
    <i name="e_wo_entrp">   -290.21474780 </i>
    <i name="e_0_energy">   -290.21474780 </i>
   </energy>
  </scstep>
  <scstep>
   <time name="total">    6.37    6.38</time>
   <energy>
    <i name="e_fr_energy">   -295.69164777 </i>
    <i name="e_wo_entrp">   -295.69164777 </i>
    <i name="e_0_energy">   -295.69164777 </i>
   </energy>
  </scstep>
  <scstep>
   <time name="total">    6.35    6.36</time>
   <energy>
    <i name="e_fr_energy">   -296.43410481 </i>
    <i name="e_wo_entrp">   -296.43410481 </i>
    <i name="e_0_energy">   -296.43410481 </i>
   </energy>
  </scstep>
  <scstep>
   <time name="total">    6.36    6.37</time>
   <energy>
    <i name="e_fr_energy">   -296.66466453 </i>
    <i name="e_wo_entrp">   -296.66466453 </i>
    <i name="e_0_energy">   -296.66466453 </i>
   </energy>
  </scstep>
  <scstep>
   <time name="total">    6.37    6.40</time>
   <energy>
    <i name="e_fr_energy">   -296.73576158 </i>
    <i name="e_wo_entrp">   -296.73576158 </i>
    <i name="e_0_energy">   -296.73576158 </i>
   </energy>
  </scstep>
  <scstep>
   <time name="total">    6.36    6.37</time>
   <energy>
    <i name="e_fr_energy">   -296.75794821 </i>
    <i name="e_wo_entrp">   -296.75794821 </i>
    <i name="e_0_energy">   -296.75794821 </i>
   </energy>
  </scstep>
  <scstep>
   <time name="total">    6.36    6.37</time>
   <energy>
    <i name="e_fr_energy">   -296.76319391 </i>
    <i name="e_wo_entrp">   -296.76319391 </i>
    <i name="e_0_energy">   -296.76319391 </i>
   </energy>
  </scstep>
  <scstep>
   <time name="total">    6.36    6.37</time>
   <energy>
    <i name="e_fr_energy">   -296.76439414 </i>
    <i name="e_wo_entrp">   -296.76439414 </i>
    <i name="e_0_energy">   -296.76439414 </i>
   </energy>
  </scstep>
  <scstep>
   <time name="total">    6.35    6.36</time>
   <energy>
    <i name="e_fr_energy">   -296.76467099 </i>
    <i name="e_wo_entrp">   -296.76467099 </i>
    <i name="e_0_energy">   -296.76467099 </i>
   </energy>
  </scstep>
  <scstep>
   <time name="total">    6.36    6.37</time>
   <energy>
    <i name="e_fr_energy">   -296.76473407 </i>
    <i name="e_wo_entrp">   -296.76473407 </i>
    <i name="e_0_energy">   -296.76473407 </i>
   </energy>
  </scstep>
  <scstep>
   <time name="total">    6.36    6.37</time>
   <energy>
    <i name="e_fr_energy">   -296.76475020 </i>
    <i name="e_wo_entrp">   -296.76475020 </i>
    <i name="e_0_energy">   -296.76475020 </i>
   </energy>
  </scstep>
  <scstep>
   <time name="total">    7.31    7.32</time>
   <energy>
    <i name="alphaZ">     58.39988875 </i>
    <i name="ewald">  -2319.68941247 </i>
    <i name="hartreedc">  -1161.35682093 </i>
    <i name="XCdc">    -71.23164803 </i>
    <i name="pawpsdc">   6526.55377294 </i>
    <i name="pawaedc">  -6376.52327441 </i>
    <i name="eentropy">     -0.00000000 </i>
    <i name="bandstr">   -513.65125827 </i>
    <i name="atom">   3560.73399828 </i>
    <i name="e_fr_energy">   -296.76475414 </i>
    <i name="e_wo_entrp">   -296.76475414 </i>
    <i name="e_0_energy">   -296.76475414 </i>
   </energy>
  </scstep>
  <structure>
   <crystal>
    <varray name="basis" >
     <v>       8.88210000       0.00000000       0.00000000 </v>
     <v>       0.00000000       8.88210000       0.00000000 </v>
     <v>       0.00000000       0.00000000       6.26980000 </v>
    </varray>
    <i name="volume">    494.63518323 </i>
    <varray name="rec_basis" >
     <v>       0.11258599       0.00000000       0.00000000 </v>
     <v>       0.00000000       0.11258599       0.00000000 </v>
     <v>       0.00000000       0.00000000       0.15949472 </v>
    </varray>
   </crystal>
   <varray name="positions" >
    <v>       0.51707794       0.96206300       0.96758016 </v>
    <v>       0.97193638       0.46237146       0.02108436 </v>
    <v>       0.37445817       0.00778529       0.21447212 </v>
    <v>       0.53829038       0.18859092       0.01775890 </v>
    <v>       0.64699157       0.11411337       0.81542468 </v>
    <v>       0.38112038       0.82219126       0.12991660 </v>
    <v>       0.55793314       0.87128359       0.86700977 </v>
    <v>       0.97067468       0.69017037       0.97210614 </v>
    <v>       0.14089051       0.49962711       0.80736312 </v>
    <v>       0.11427668       0.31449439       0.88675215 </v>
    <v>       0.83759702       0.62173631       0.14767546 </v>
    <v>       0.91539716       0.37388394       0.10969840 </v>
    <v>       0.27770000       0.22230000       0.50000000 </v>
    <v>       0.72230000       0.77770000       0.50000000 </v>
    <v>       0.77770000       0.27770000       0.50000000 </v>
    <v>       0.22230000       0.72230000       0.50000000 </v>
    <v>       0.00000000       0.00000000       0.00000000 </v>
    <v>       0.50000000       0.50000000       0.00000000 </v>
    <v>       0.57301322       0.09623734       0.93602928 </v>
    <v>       0.41557288       0.92980777       0.11088943 </v>
    <v>       0.08563050       0.42423553       0.90068080 </v>
    <v>       0.92229739       0.59986600       0.04391024 </v>
    <v>       0.00000000       0.00000000       0.50000000 </v>
    <v>       0.50000000       0.50000000       0.50000000 </v>
   </varray>
  </structure>
  <varray name="forces" >
   <v>       0.00316199      -0.00512351      -0.00584772 </v>
   <v>       0.00254404       0.00661333      -0.00435348 </v>
   <v>      -0.00163140       0.00373869       0.00203421 </v>
   <v>      -0.00070685      -0.00087288       0.00305644 </v>
   <v>       0.00306653       0.00108834      -0.00453920 </v>
   <v>      -0.00299614      -0.00474035      -0.00245152 </v>
   <v>       0.00261920       0.00090439      -0.00079096 </v>
   <v>      -0.00089702      -0.00187647       0.00208156 </v>
   <v>      -0.00392124       0.00166339       0.00292646 </v>
   <v>      -0.00062941       0.00069217       0.00291557 </v>
   <v>      -0.00066376      -0.00234232      -0.00192968 </v>
   <v>      -0.00214282      -0.00701532       0.00503720 </v>
   <v>       0.05806221      -0.07280877      -0.12836268 </v>
   <v>       0.03650555      -0.02073281      -0.03378256 </v>
   <v>      -0.03009494      -0.01038843       0.00619691 </v>
   <v>      -0.07298648      -0.11170366       0.15957511 </v>
   <v>       0.02358272       0.11721133      -0.03357109 </v>
   <v>      -0.01687440       0.09781081       0.03547906 </v>
   <v>      -0.00193526       0.00670559       0.00442686 </v>
   <v>      -0.00341034      -0.00203753       0.00211907 </v>
   <v>       0.00603721      -0.00451664      -0.00264679 </v>
   <v>      -0.00003348       0.00875714      -0.00016457 </v>
   <v>      -0.03611582      -0.00586318      -0.01187545 </v>
   <v>       0.03945991       0.00483670       0.00446726 </v>
  </varray>
  <varray name="stress" >
   <v>       4.59351489       0.01785367      -4.55795339 </v>
   <v>       0.01774898       1.80906368      -0.32843646 </v>
   <v>      -4.55791065      -0.32849578       7.02416341 </v>
  </varray>
  <energy>
   <i name="e_fr_energy">   -296.76475414 </i>
   <i name="e_wo_entrp">   -296.76475414 </i>
   <i name="e_0_energy">   -296.76475414 </i>
  </energy>
  <time name="totalsc">  112.62  112.96</time>
 </calculation>
 <calculation>
  <scstep>
   <time name="total">    6.37    6.38</time>
   <energy>
    <i name="alphaZ">     57.91658730 </i>
    <i name="ewald">  -2316.00297271 </i>
    <i name="hartreedc">  -1159.36229855 </i>
    <i name="XCdc">    -71.74222878 </i>
    <i name="pawpsdc">   6668.36210163 </i>
    <i name="pawaedc">  -6518.20252059 </i>
    <i name="eentropy">     -0.00000000 </i>
    <i name="bandstr">   -518.40123443 </i>
    <i name="atom">   3560.73399828 </i>
    <i name="e_fr_energy">   -296.69856786 </i>
    <i name="e_wo_entrp">   -296.69856786 </i>
    <i name="e_0_energy">   -296.69856786 </i>
   </energy>
  </scstep>
  <scstep>
   <time name="total">    6.36    6.37</time>
   <energy>
    <i name="e_fr_energy">   -296.76478774 </i>
    <i name="e_wo_entrp">   -296.76478774 </i>
    <i name="e_0_energy">   -296.76478774 </i>
   </energy>
  </scstep>
  <scstep>
   <time name="total">    6.36    6.37</time>
   <energy>
    <i name="e_fr_energy">   -296.77613959 </i>
    <i name="e_wo_entrp">   -296.77613959 </i>
    <i name="e_0_energy">   -296.77613959 </i>
   </energy>
  </scstep>
  <scstep>
   <time name="total">    6.37    6.37</time>
   <energy>
    <i name="e_fr_energy">   -296.77876239 </i>
    <i name="e_wo_entrp">   -296.77876239 </i>
    <i name="e_0_energy">   -296.77876239 </i>
   </energy>
  </scstep>
  <scstep>
   <time name="total">    6.36    6.37</time>
   <energy>
    <i name="e_fr_energy">   -296.77947427 </i>
    <i name="e_wo_entrp">   -296.77947427 </i>
    <i name="e_0_energy">   -296.77947427 </i>
   </energy>
  </scstep>
  <scstep>
   <time name="total">    6.36    6.37</time>
   <energy>
    <i name="e_fr_energy">   -296.77971066 </i>
    <i name="e_wo_entrp">   -296.77971066 </i>
    <i name="e_0_energy">   -296.77971066 </i>
   </energy>
  </scstep>
  <scstep>
   <time name="total">    6.37    6.37</time>
   <energy>
    <i name="e_fr_energy">   -296.77977654 </i>
    <i name="e_wo_entrp">   -296.77977654 </i>
    <i name="e_0_energy">   -296.77977654 </i>
   </energy>
  </scstep>
  <scstep>
   <time name="total">    6.36    6.37</time>
   <energy>
    <i name="e_fr_energy">   -296.77979294 </i>
    <i name="e_wo_entrp">   -296.77979294 </i>
    <i name="e_0_energy">   -296.77979294 </i>
   </energy>
  </scstep>
  <scstep>
   <time name="total">    7.30    7.32</time>
   <energy>
    <i name="alphaZ">     57.91658730 </i>
    <i name="ewald">  -2316.00297271 </i>
    <i name="hartreedc">  -1161.26905567 </i>
    <i name="XCdc">    -71.63035627 </i>
    <i name="pawpsdc">   6468.10750546 </i>
    <i name="pawaedc">  -6318.02731334 </i>
    <i name="eentropy">     -0.00000000 </i>
    <i name="bandstr">   -516.60818990 </i>
    <i name="atom">   3560.73399828 </i>
    <i name="e_fr_energy">   -296.77979686 </i>
    <i name="e_wo_entrp">   -296.77979686 </i>
    <i name="e_0_energy">   -296.77979686 </i>
   </energy>
  </scstep>
  <structure>
   <crystal>
    <varray name="basis" >
     <v>       8.90741950       0.00009841      -0.02512349 </v>
     <v>       0.00009783       8.89207158      -0.00181035 </v>
     <v>      -0.01773429      -0.00127814       6.29713019 </v>
    </varray>
    <i name="volume">    498.76280735 </i>
    <varray name="rec_basis" >
     <v>       0.11226685      -0.00000117       0.00031617 </v>
     <v>      -0.00000118       0.11245974       0.00002282 </v>
     <v>       0.00044791       0.00003233       0.15880377 </v>
    </varray>
   </crystal>
   <varray name="positions" >
    <v>       0.51709512       0.96203517       0.96753517 </v>
    <v>       0.97195019       0.46240738       0.02105086 </v>
    <v>       0.37444931       0.00780559       0.21448777 </v>
    <v>       0.53828654       0.18858618       0.01778241 </v>
    <v>       0.64700823       0.11411928       0.81538975 </v>
    <v>       0.38110410       0.82216551       0.12989774 </v>
    <v>       0.55794737       0.87128850       0.86700368 </v>
    <v>       0.97066981       0.69016018       0.97212215 </v>
    <v>       0.14086922       0.49963614       0.80738563 </v>
    <v>       0.11427326       0.31449815       0.88677458 </v>
    <v>       0.83759342       0.62172359       0.14766061 </v>
    <v>       0.91538552       0.37384584       0.10973716 </v>
    <v>       0.27801536       0.22190454       0.49901232 </v>
    <v>       0.72249828       0.77758739       0.49974006 </v>
    <v>       0.77753654       0.27764358       0.50004768 </v>
    <v>       0.22190358       0.72169329       0.50122784 </v>
    <v>       0.00012809       0.00063663      -0.00025831 </v>
    <v>       0.49990835       0.50053125       0.00027299 </v>
    <v>       0.57300270       0.09627376       0.93606334 </v>
    <v>       0.41555436       0.92979671       0.11090574 </v>
    <v>       0.08566329       0.42421100       0.90066043 </v>
    <v>       0.92229721       0.59991357       0.04390897 </v>
    <v>      -0.00019616      -0.00003185       0.49990862 </v>
    <v>       0.50021432       0.50002627       0.50003437 </v>
   </varray>
  </structure>
  <varray name="forces" >
   <v>      -0.18857638      -0.00983726       0.20434228 </v>
   <v>       0.17600995      -0.07164337      -0.12734717 </v>
   <v>       0.08095419      -0.08297457      -0.12128524 </v>
   <v>       0.04594368      -0.06924627      -0.06433357 </v>
   <v>      -0.18450800      -0.03869574       0.20884612 </v>
   <v>       0.03764846       0.05731649      -0.03119186 </v>
   <v>      -0.06115002       0.05676738       0.08357916 </v>
   <v>      -0.06999330      -0.07727646       0.06853063 </v>
   <v>      -0.11018035      -0.09285969       0.11513360 </v>
   <v>      -0.02816379       0.03849984       0.01967549 </v>
   <v>       0.18792358      -0.04180323      -0.16351615 </v>
   <v>       0.10146458       0.08884136      -0.09589347 </v>
   <v>       0.04713401      -0.06362336      -0.11420438 </v>
   <v>       0.03620326      -0.02195833      -0.02978055 </v>
   <v>      -0.03287600      -0.01673924       0.00718014 </v>
   <v>      -0.05936954      -0.09591321       0.14038784 </v>
   <v>       0.02107419       0.10690905      -0.03444033 </v>
   <v>      -0.01374343       0.08964177       0.03608547 </v>
   <v>       0.03995603      -0.03811386      -0.08359478 </v>
   <v>       0.22882155       0.12644972      -0.20258613 </v>
   <v>      -0.21885479       0.16215831       0.13638767 </v>
   <v>      -0.03876211      -0.00193510       0.05528291 </v>
   <v>      -0.02440559      -0.00640787      -0.01010799 </v>
   <v>       0.02744980       0.00244365       0.00285032 </v>
  </varray>
  <varray name="stress" >
   <v>      -1.03277952      -0.22196844      -0.01666050 </v>
   <v>      -0.22208589      -2.45983818      -0.11574556 </v>
   <v>      -0.01657505      -0.11576431       0.74741298 </v>
  </varray>
  <energy>
   <i name="e_fr_energy">   -296.77979686 </i>
   <i name="e_wo_entrp">   -296.77979686 </i>
   <i name="e_0_energy">   -296.77979686 </i>
  </energy>
  <time name="totalsc">   67.18   67.26</time>
 </calculation>
 <calculation>
  <scstep>
   <time name="total">    6.36    6.37</time>
   <energy>
    <i name="alphaZ">     57.85029195 </i>
    <i name="ewald">  -2315.49191743 </i>
    <i name="hartreedc">  -1161.01072247 </i>
    <i name="XCdc">    -71.69923437 </i>
    <i name="pawpsdc">   6486.55833895 </i>
    <i name="pawaedc">  -6336.46054512 </i>
    <i name="eentropy">     -0.00000000 </i>
    <i name="bandstr">   -517.25865531 </i>
    <i name="atom">   3560.73399828 </i>
    <i name="e_fr_energy">   -296.77844551 </i>
    <i name="e_wo_entrp">   -296.77844551 </i>
    <i name="e_0_energy">   -296.77844551 </i>
   </energy>
  </scstep>
  <scstep>
   <time name="total">    6.36    6.37</time>
   <energy>
    <i name="e_fr_energy">   -296.77973026 </i>
    <i name="e_wo_entrp">   -296.77973026 </i>
    <i name="e_0_energy">   -296.77973026 </i>
   </energy>
  </scstep>
  <scstep>
   <time name="total">    6.36    6.37</time>
   <energy>
    <i name="e_fr_energy">   -296.77994725 </i>
    <i name="e_wo_entrp">   -296.77994725 </i>
    <i name="e_0_energy">   -296.77994725 </i>
   </energy>
  </scstep>
  <scstep>
   <time name="total">    6.38    6.38</time>
   <energy>
    <i name="e_fr_energy">   -296.77999571 </i>
    <i name="e_wo_entrp">   -296.77999571 </i>
    <i name="e_0_energy">   -296.77999571 </i>
   </energy>
  </scstep>
  <scstep>
   <time name="total">    6.36    6.37</time>
   <energy>
    <i name="e_fr_energy">   -296.78000889 </i>
    <i name="e_wo_entrp">   -296.78000889 </i>
    <i name="e_0_energy">   -296.78000889 </i>
   </energy>
  </scstep>
  <scstep>
   <time name="total">    6.37    6.38</time>
   <energy>
    <i name="e_fr_energy">   -296.78001343 </i>
    <i name="e_wo_entrp">   -296.78001343 </i>
    <i name="e_0_energy">   -296.78001343 </i>
   </energy>
  </scstep>
  <scstep>
   <time name="total">    6.37    6.37</time>
   <energy>
    <i name="e_fr_energy">   -296.78001450 </i>
    <i name="e_wo_entrp">   -296.78001450 </i>
    <i name="e_0_energy">   -296.78001450 </i>
   </energy>
  </scstep>
  <scstep>
   <time name="total">    7.30    7.31</time>
   <energy>
    <i name="alphaZ">     57.85029195 </i>
    <i name="ewald">  -2315.49191743 </i>
    <i name="hartreedc">  -1161.27152492 </i>
    <i name="XCdc">    -71.68441299 </i>
    <i name="pawpsdc">   6460.63798334 </i>
    <i name="pawaedc">  -6310.55110316 </i>
    <i name="eentropy">     -0.00000000 </i>
    <i name="bandstr">   -517.00332979 </i>
    <i name="atom">   3560.73399828 </i>
    <i name="e_fr_energy">   -296.78001473 </i>
    <i name="e_wo_entrp">   -296.78001473 </i>
    <i name="e_0_energy">   -296.78001473 </i>
   </energy>
  </scstep>
  <structure>
   <crystal>
    <varray name="basis" >
     <v>       8.91091966       0.00011201      -0.02859655 </v>
     <v>       0.00011136       8.89345004      -0.00206061 </v>
     <v>      -0.02018587      -0.00145483       6.30090830 </v>
    </varray>
    <i name="volume">    499.33438017 </i>
    <varray name="rec_basis" >
     <v>       0.11222302      -0.00000132       0.00035952 </v>
     <v>      -0.00000133       0.11244231       0.00002596 </v>
     <v>       0.00050932       0.00003677       0.15870892 </v>
    </varray>
   </crystal>
   <varray name="positions" >
    <v>       0.51709747       0.96203133       0.96752898 </v>
    <v>       0.97195209       0.46241234       0.02104626 </v>
    <v>       0.37444809       0.00780840       0.21448992 </v>
    <v>       0.53828601       0.18858553       0.01778565 </v>
    <v>       0.64701051       0.11412010       0.81538496 </v>
    <v>       0.38110185       0.82216196       0.12989513 </v>
    <v>       0.55794933       0.87128918       0.86700285 </v>
    <v>       0.97066914       0.69015877       0.97212436 </v>
    <v>       0.14086629       0.49963739       0.80738872 </v>
    <v>       0.11427279       0.31449867       0.88677767 </v>
    <v>       0.83759292       0.62172183       0.14765857 </v>
    <v>       0.91538393       0.37384058       0.10974248 </v>
    <v>       0.27805856       0.22184992       0.49887653 </v>
    <v>       0.72252554       0.77757184       0.49970439 </v>
    <v>       0.77751402       0.27763579       0.50005415 </v>
    <v>       0.22184927       0.72160953       0.50139660 </v>
    <v>       0.00014567       0.00072453      -0.00029377 </v>
    <v>       0.49989579       0.50060462       0.00031054 </v>
    <v>       0.57300126       0.09627879       0.93606803 </v>
    <v>       0.41555181       0.92979518       0.11090797 </v>
    <v>       0.08566780       0.42420761       0.90065764 </v>
    <v>       0.92229719       0.59992013       0.04390880 </v>
    <v>      -0.00022323      -0.00003624       0.49989594 </v>
    <v>       0.50024388       0.50002990       0.50003922 </v>
   </varray>
  </structure>
  <varray name="forces" >
   <v>      -0.21320335      -0.01039517       0.23144028 </v>
   <v>       0.19847097      -0.08190826      -0.14327000 </v>
   <v>       0.09209979      -0.09447043      -0.13788616 </v>
   <v>       0.05228748      -0.07832108      -0.07343390 </v>
   <v>      -0.20942862      -0.04393358       0.23728494 </v>
   <v>       0.04322846       0.06570222      -0.03524727 </v>
   <v>      -0.06991323       0.06439685       0.09518667 </v>
   <v>      -0.07933210      -0.08720739       0.07751118 </v>
   <v>      -0.12441911      -0.10539335       0.13021083 </v>
   <v>      -0.03193352       0.04352022       0.02205110 </v>
   <v>       0.21298159      -0.04696358      -0.18515614 </v>
   <v>       0.11552938       0.10168134      -0.10965818 </v>
   <v>       0.04552726      -0.06210508      -0.11204550 </v>
   <v>       0.03585939      -0.02185292      -0.02911495 </v>
   <v>      -0.03314918      -0.01764504       0.00713735 </v>
   <v>      -0.05716118      -0.09350353       0.13756840 </v>
   <v>       0.02052680       0.10538297      -0.03449834 </v>
   <v>      -0.01328640       0.08823626       0.03611626 </v>
   <v>       0.04494096      -0.04436875      -0.09450833 </v>
   <v>       0.25915608       0.14300069      -0.22942004 </v>
   <v>      -0.24806759       0.18356272       0.15464222 </v>
   <v>      -0.04364276      -0.00337797       0.06232836 </v>
   <v>      -0.02293546      -0.00629730      -0.00990081 </v>
   <v>       0.02586432       0.00226016       0.00266203 </v>
  </varray>
  <varray name="stress" >
   <v>      -1.79281611      -0.25356468       0.58165707 </v>
   <v>      -0.25368267      -3.03911726      -0.08733513 </v>
   <v>       0.58174824      -0.08734697      -0.09354555 </v>
  </varray>
  <energy>
   <i name="e_fr_energy">   -296.78001473 </i>
   <i name="e_wo_entrp">   -296.78001473 </i>
   <i name="e_0_energy">   -296.78001473 </i>
  </energy>
  <time name="totalsc">   60.81   60.88</time>
 </calculation>
 <calculation>
  <scstep>
   <time name="total">    6.37    6.38</time>
   <energy>
    <i name="alphaZ">     57.70615968 </i>
    <i name="ewald">  -2311.66350244 </i>
    <i name="hartreedc">  -1161.48789524 </i>
    <i name="XCdc">    -71.80054076 </i>
    <i name="pawpsdc">   6507.24610116 </i>
    <i name="pawaedc">  -6357.12497164 </i>
    <i name="eentropy">     -0.00000000 </i>
    <i name="bandstr">   -520.35642025 </i>
    <i name="atom">   3560.73399828 </i>
    <i name="e_fr_energy">   -296.74707120 </i>
    <i name="e_wo_entrp">   -296.74707120 </i>
    <i name="e_0_energy">   -296.74707120 </i>
   </energy>
  </scstep>
  <scstep>
   <time name="total">    6.36    6.38</time>
   <energy>
    <i name="e_fr_energy">   -296.77886871 </i>
    <i name="e_wo_entrp">   -296.77886871 </i>
    <i name="e_0_energy">   -296.77886871 </i>
   </energy>
  </scstep>
  <scstep>
   <time name="total">    6.37    6.38</time>
   <energy>
    <i name="e_fr_energy">   -296.78611959 </i>
    <i name="e_wo_entrp">   -296.78611959 </i>
    <i name="e_0_energy">   -296.78611959 </i>
   </energy>
  </scstep>
  <scstep>
   <time name="total">    6.37    6.37</time>
   <energy>
    <i name="e_fr_energy">   -296.78757459 </i>
    <i name="e_wo_entrp">   -296.78757459 </i>
    <i name="e_0_energy">   -296.78757459 </i>
   </energy>
  </scstep>
  <scstep>
   <time name="total">    6.36    6.37</time>
   <energy>
    <i name="e_fr_energy">   -296.78786187 </i>
    <i name="e_wo_entrp">   -296.78786187 </i>
    <i name="e_0_energy">   -296.78786187 </i>
   </energy>
  </scstep>
  <scstep>
   <time name="total">    6.37    6.38</time>
   <energy>
    <i name="e_fr_energy">   -296.78794433 </i>
    <i name="e_wo_entrp">   -296.78794433 </i>
    <i name="e_0_energy">   -296.78794433 </i>
   </energy>
  </scstep>
  <scstep>
   <time name="total">    6.38    6.39</time>
   <energy>
    <i name="e_fr_energy">   -296.78797102 </i>
    <i name="e_wo_entrp">   -296.78797102 </i>
    <i name="e_0_energy">   -296.78797102 </i>
   </energy>
  </scstep>
  <scstep>
   <time name="total">    6.35    6.36</time>
   <energy>
    <i name="e_fr_energy">   -296.78797842 </i>
    <i name="e_wo_entrp">   -296.78797842 </i>
    <i name="e_0_energy">   -296.78797842 </i>
   </energy>
  </scstep>
  <scstep>
   <time name="total">    7.30    7.31</time>
   <energy>
    <i name="alphaZ">     57.70615968 </i>
    <i name="ewald">  -2311.66350244 </i>
    <i name="hartreedc">  -1163.48252255 </i>
    <i name="XCdc">    -71.71106090 </i>
    <i name="pawpsdc">   6459.95998095 </i>
    <i name="pawaedc">  -6309.86562283 </i>
    <i name="eentropy">     -0.00000000 </i>
    <i name="bandstr">   -518.46541044 </i>
    <i name="atom">   3560.73399828 </i>
    <i name="e_fr_energy">   -296.78798025 </i>
    <i name="e_wo_entrp">   -296.78798025 </i>
    <i name="e_0_energy">   -296.78798025 </i>
   </energy>
  </scstep>
  <structure>
   <crystal>
    <varray name="basis" >
     <v>       8.91842309      -0.00017363      -0.03760157 </v>
     <v>      -0.00017454       8.89339210      -0.00287432 </v>
     <v>      -0.02653639      -0.00202826       6.31142002 </v>
    </varray>
    <i name="volume">    500.58156412 </i>
    <varray name="rec_basis" >
     <v>       0.11212943       0.00000235       0.00047145 </v>
     <v>       0.00000234       0.11244305       0.00003614 </v>
     <v>       0.00066804       0.00005122       0.15844577 </v>
    </varray>
   </crystal>
   <varray name="positions" >
    <v>       0.51683890       0.96200770       0.96791900 </v>
    <v>       0.97220446       0.46232369       0.02078170 </v>
    <v>       0.37455908       0.00769805       0.21425305 </v>
    <v>       0.53834952       0.18848576       0.01766532 </v>
    <v>       0.64675648       0.11406751       0.81578916 </v>
    <v>       0.38114939       0.82223419       0.12982594 </v>
    <v>       0.55786792       0.87137161       0.86716816 </v>
    <v>       0.97056860       0.69004584       0.97226679 </v>
    <v>       0.14070339       0.49950913       0.80762636 </v>
    <v>       0.11423174       0.31455454       0.88682501 </v>
    <v>       0.83785656       0.62165816       0.14732729 </v>
    <v>       0.91552322       0.37395303       0.10956448 </v>
    <v>       0.27823512       0.22162008       0.49830107 </v>
    <v>       0.72264605       0.77750118       0.49955393 </v>
    <v>       0.77740998       0.27759203       0.50008453 </v>
    <v>       0.22162740       0.72125941       0.50210874 </v>
    <v>       0.00022009       0.00110110      -0.00045317 </v>
    <v>       0.49984441       0.50091928       0.00047875 </v>
    <v>       0.57305296       0.09623730       0.93591451 </v>
    <v>       0.41586720       0.92996965       0.11051083 </v>
    <v>       0.08537143       0.42442774       0.90092148 </v>
    <v>       0.92224290       0.59993422       0.04401807 </v>
    <v>      -0.00032726      -0.00005637       0.49984297 </v>
    <v>       0.50035846       0.50004283       0.50005762 </v>
   </varray>
  </structure>
  <varray name="forces" >
   <v>       0.03052205       0.05287922      -0.01965685 </v>
   <v>      -0.02557680       0.05797382       0.01819267 </v>
   <v>       0.11630973      -0.08702144      -0.16654541 </v>
   <v>       0.07028453      -0.08243667      -0.09342011 </v>
   <v>      -0.16194716      -0.04972790       0.17707411 </v>
   <v>       0.08066536       0.13101689      -0.06232512 </v>
   <v>      -0.10579062       0.08234389       0.13968348 </v>
   <v>      -0.08703745      -0.07274696       0.08151261 </v>
   <v>      -0.13779801      -0.07764137       0.13838818 </v>
   <v>      -0.06520853       0.12132235       0.04099038 </v>
   <v>       0.16128448      -0.04416320      -0.13849774 </v>
   <v>       0.14266393       0.09623128      -0.13081638 </v>
   <v>       0.04000745      -0.05795824      -0.10429179 </v>
   <v>       0.03298804      -0.01971990      -0.02557667 </v>
   <v>      -0.03154779      -0.01777641       0.00548398 </v>
   <v>      -0.05010990      -0.08492840       0.12652821 </v>
   <v>       0.02238487       0.10324177      -0.03469037 </v>
   <v>      -0.01503195       0.08650650       0.03631380 </v>
   <v>      -0.08089965      -0.07509237       0.04177430 </v>
   <v>       0.04753626       0.02490661      -0.01960319 </v>
   <v>      -0.06139735       0.01520780       0.02192969 </v>
   <v>       0.07494519      -0.09705846      -0.02538687 </v>
   <v>      -0.02141431      -0.00649551      -0.00883500 </v>
   <v>       0.02416763       0.00113671       0.00177410 </v>
  </varray>
  <varray name="stress" >
   <v>      -1.57740464      -0.20707911       0.20785810 </v>
   <v>      -0.20718548      -4.10687902      -0.14156179 </v>
   <v>       0.20792935      -0.14158408      -0.40038608 </v>
  </varray>
  <energy>
   <i name="e_fr_energy">   -296.78798025 </i>
   <i name="e_wo_entrp">   -296.78798025 </i>
   <i name="e_0_energy">   -296.78798025 </i>
  </energy>
  <time name="totalsc">   67.22   67.31</time>
 </calculation>
 <calculation>
  <scstep>
   <time name="total">    6.36    6.36</time>
   <energy>
    <i name="alphaZ">     57.54468467 </i>
    <i name="ewald">  -2307.33803571 </i>
    <i name="hartreedc">  -1163.74045371 </i>
    <i name="XCdc">    -71.84051655 </i>
    <i name="pawpsdc">   6512.90777922 </i>
    <i name="pawaedc">  -6362.77528820 </i>
    <i name="eentropy">     -0.00000000 </i>
    <i name="bandstr">   -522.23138377 </i>
    <i name="atom">   3560.73399828 </i>
    <i name="e_fr_energy">   -296.73921576 </i>
    <i name="e_wo_entrp">   -296.73921576 </i>
    <i name="e_0_energy">   -296.73921576 </i>
   </energy>
  </scstep>
  <scstep>
   <time name="total">    6.36    6.37</time>
   <energy>
    <i name="e_fr_energy">   -296.77945881 </i>
    <i name="e_wo_entrp">   -296.77945881 </i>
    <i name="e_0_energy">   -296.77945881 </i>
   </energy>
  </scstep>
  <scstep>
   <time name="total">    6.36    6.37</time>
   <energy>
    <i name="e_fr_energy">   -296.78866943 </i>
    <i name="e_wo_entrp">   -296.78866943 </i>
    <i name="e_0_energy">   -296.78866943 </i>
   </energy>
  </scstep>
  <scstep>
   <time name="total">    6.37    6.37</time>
   <energy>
    <i name="e_fr_energy">   -296.79052058 </i>
    <i name="e_wo_entrp">   -296.79052058 </i>
    <i name="e_0_energy">   -296.79052058 </i>
   </energy>
  </scstep>
  <scstep>
   <time name="total">    6.36    6.37</time>
   <energy>
    <i name="e_fr_energy">   -296.79088672 </i>
    <i name="e_wo_entrp">   -296.79088672 </i>
    <i name="e_0_energy">   -296.79088672 </i>
   </energy>
  </scstep>
  <scstep>
   <time name="total">    6.36    6.37</time>
   <energy>
    <i name="e_fr_energy">   -296.79099195 </i>
    <i name="e_wo_entrp">   -296.79099195 </i>
    <i name="e_0_energy">   -296.79099195 </i>
   </energy>
  </scstep>
  <scstep>
   <time name="total">    6.38    6.38</time>
   <energy>
    <i name="e_fr_energy">   -296.79102609 </i>
    <i name="e_wo_entrp">   -296.79102609 </i>
    <i name="e_0_energy">   -296.79102609 </i>
   </energy>
  </scstep>
  <scstep>
   <time name="total">    6.36    6.37</time>
   <energy>
    <i name="e_fr_energy">   -296.79103562 </i>
    <i name="e_wo_entrp">   -296.79103562 </i>
    <i name="e_0_energy">   -296.79103562 </i>
   </energy>
  </scstep>
  <scstep>
   <time name="total">    7.30    7.31</time>
   <energy>
    <i name="alphaZ">     57.54468467 </i>
    <i name="ewald">  -2307.33803571 </i>
    <i name="hartreedc">  -1165.99618035 </i>
    <i name="XCdc">    -71.73970985 </i>
    <i name="pawpsdc">   6459.31544002 </i>
    <i name="pawaedc">  -6309.21298661 </i>
    <i name="eentropy">     -0.00000000 </i>
    <i name="bandstr">   -520.09824843 </i>
    <i name="atom">   3560.73399828 </i>
    <i name="e_fr_energy">   -296.79103798 </i>
    <i name="e_wo_entrp">   -296.79103798 </i>
    <i name="e_0_energy">   -296.79103798 </i>
   </energy>
  </scstep>
  <structure>
   <crystal>
    <varray name="basis" >
     <v>       8.92687143      -0.00049525      -0.04774059 </v>
     <v>      -0.00049644       8.89332685      -0.00379050 </v>
     <v>      -0.03368661      -0.00267390       6.32325548 </v>
    </varray>
    <i name="volume">    501.98623623 </i>
    <varray name="rec_basis" >
     <v>       0.11202452       0.00000651       0.00059680 </v>
     <v>       0.00000649       0.11244388       0.00004758 </v>
     <v>       0.00084579       0.00006745       0.15815092 </v>
    </varray>
   </crystal>
   <varray name="positions" >
    <v>       0.51654831       0.96198111       0.96835699 </v>
    <v>       0.97248817       0.46222387       0.02048471 </v>
    <v>       0.37468376       0.00757379       0.21398695 </v>
    <v>       0.53842086       0.18837341       0.01753015 </v>
    <v>       0.64647102       0.11400832       0.81624309 </v>
    <v>       0.38120282       0.82231552       0.12974825 </v>
    <v>       0.55777647       0.87146444       0.86735386 </v>
    <v>       0.97045560       0.68991869       0.97242672 </v>
    <v>       0.14052032       0.49936473       0.80789321 </v>
    <v>       0.11418559       0.31461744       0.88687817 </v>
    <v>       0.83815289       0.62158646       0.14695534 </v>
    <v>       0.91567979       0.37407963       0.10936464 </v>
    <v>       0.27843328       0.22136127       0.49765446 </v>
    <v>       0.72278151       0.77742162       0.49938499 </v>
    <v>       0.77729297       0.27754276       0.50011851 </v>
    <v>       0.22137835       0.72086524       0.50290881 </v>
    <v>       0.00030369       0.00152509      -0.00063217 </v>
    <v>       0.49978675       0.50127358       0.00066779 </v>
    <v>       0.57311100       0.09619057       0.93574203 </v>
    <v>       0.41622169       0.93016608       0.11006495 </v>
    <v>       0.08503822       0.42467559       0.90121760 </v>
    <v>       0.92218192       0.59995009       0.04414081 </v>
    <v>      -0.00044434      -0.00007904       0.49978327 </v>
    <v>       0.50048738       0.50005739       0.50007848 </v>
   </varray>
  </structure>
  <varray name="forces" >
   <v>       0.31136148       0.12541659      -0.30952900 </v>
   <v>      -0.28296355       0.21477474       0.20485588 </v>
   <v>       0.14372636      -0.07867235      -0.19901470 </v>
   <v>       0.09055943      -0.08677475      -0.11589756 </v>
   <v>      -0.10688737      -0.05581937       0.10750803 </v>
   <v>       0.12287737       0.20343917      -0.09317733 </v>
   <v>      -0.14613796       0.10215124       0.18973613 </v>
   <v>      -0.09567371      -0.05625128       0.08598227 </v>
   <v>      -0.15295447      -0.04669100       0.14776278 </v>
   <v>      -0.10264217       0.20721438       0.06253232 </v>
   <v>       0.10157739      -0.04068132      -0.08462760 </v>
   <v>       0.17323941       0.09019517      -0.15478898 </v>
   <v>       0.03379937      -0.05329083      -0.09555028 </v>
   <v>       0.02973621      -0.01711077      -0.02167285 </v>
   <v>      -0.02958598      -0.01767148       0.00355481 </v>
   <v>      -0.04227155      -0.07566779       0.11424725 </v>
   <v>       0.02423328       0.10073522      -0.03500468 </v>
   <v>      -0.01694894       0.08438555       0.03668027 </v>
   <v>      -0.22431417      -0.10991479       0.19775594 </v>
   <v>      -0.19671350      -0.10846321       0.22302961 </v>
   <v>       0.15378102      -0.17357226      -0.13160883 </v>
   <v>       0.20969843      -0.20138027      -0.12577153 </v>
   <v>      -0.01973318      -0.00650961      -0.00774472 </v>
   <v>       0.02223678       0.00015903       0.00074276 </v>
  </varray>
  <varray name="stress" >
   <v>      -1.31255820      -0.15342757      -0.24716210 </v>
   <v>      -0.15352984      -5.28084521      -0.20699671 </v>
   <v>      -0.24711460      -0.20703985      -0.70175090 </v>
  </varray>
  <energy>
   <i name="e_fr_energy">   -296.79103798 </i>
   <i name="e_wo_entrp">   -296.79103798 </i>
   <i name="e_0_energy">   -296.79103798 </i>
  </energy>
  <time name="totalsc">   67.16   67.25</time>
 </calculation>
 <calculation>
  <scstep>
   <time name="total">    6.35    6.35</time>
   <energy>
    <i name="alphaZ">     57.47710409 </i>
    <i name="ewald">  -2304.56473402 </i>
    <i name="hartreedc">  -1166.38522967 </i>
    <i name="XCdc">    -71.77641264 </i>
    <i name="pawpsdc">   6479.98601616 </i>
    <i name="pawaedc">  -6329.86913510 </i>
    <i name="eentropy">     -0.00000000 </i>
    <i name="bandstr">   -522.38512107 </i>
    <i name="atom">   3560.73399828 </i>
    <i name="e_fr_energy">   -296.78351398 </i>
    <i name="e_wo_entrp">   -296.78351398 </i>
    <i name="e_0_energy">   -296.78351398 </i>
   </energy>
  </scstep>
  <scstep>
   <time name="total">    6.36    6.37</time>
   <energy>
    <i name="e_fr_energy">   -296.79435134 </i>
    <i name="e_wo_entrp">   -296.79435134 </i>
    <i name="e_0_energy">   -296.79435134 </i>
   </energy>
  </scstep>
  <scstep>
   <time name="total">    6.36    6.38</time>
   <energy>
    <i name="e_fr_energy">   -296.79651345 </i>
    <i name="e_wo_entrp">   -296.79651345 </i>
    <i name="e_0_energy">   -296.79651345 </i>
   </energy>
  </scstep>
  <scstep>
   <time name="total">    6.37    6.37</time>
   <energy>
    <i name="e_fr_energy">   -296.79699019 </i>
    <i name="e_wo_entrp">   -296.79699019 </i>
    <i name="e_0_energy">   -296.79699019 </i>
   </energy>
  </scstep>
  <scstep>
   <time name="total">    6.36    6.37</time>
   <energy>
    <i name="e_fr_energy">   -296.79709634 </i>
    <i name="e_wo_entrp">   -296.79709634 </i>
    <i name="e_0_energy">   -296.79709634 </i>
   </energy>
  </scstep>
  <scstep>
   <time name="total">    6.35    6.36</time>
   <energy>
    <i name="e_fr_energy">   -296.79712964 </i>
    <i name="e_wo_entrp">   -296.79712964 </i>
    <i name="e_0_energy">   -296.79712964 </i>
   </energy>
  </scstep>
  <scstep>
   <time name="total">    6.37    6.37</time>
   <energy>
    <i name="e_fr_energy">   -296.79714043 </i>
    <i name="e_wo_entrp">   -296.79714043 </i>
    <i name="e_0_energy">   -296.79714043 </i>
   </energy>
  </scstep>
  <scstep>
   <time name="total">    7.31    7.32</time>
   <energy>
    <i name="alphaZ">     57.47710409 </i>
    <i name="ewald">  -2304.56473402 </i>
    <i name="hartreedc">  -1167.76913554 </i>
    <i name="XCdc">    -71.70670787 </i>
    <i name="pawpsdc">   6464.10028476 </i>
    <i name="pawaedc">  -6313.99772873 </i>
    <i name="eentropy">     -0.00000000 </i>
    <i name="bandstr">   -521.07022417 </i>
    <i name="atom">   3560.73399828 </i>
    <i name="e_fr_energy">   -296.79714319 </i>
    <i name="e_wo_entrp">   -296.79714319 </i>
    <i name="e_0_energy">   -296.79714319 </i>
   </energy>
  </scstep>
  <structure>
   <crystal>
    <varray name="basis" >
     <v>       8.93107627      -0.00076828      -0.05382362 </v>
     <v>      -0.00077006       8.89030380      -0.00444317 </v>
     <v>      -0.03797557      -0.00313350       6.32991034 </v>
    </varray>
    <i name="volume">    502.57646290 </i>
    <varray name="rec_basis" >
     <v>       0.11197264       0.00001003       0.00067177 </v>
     <v>       0.00001001       0.11248212       0.00005574 </v>
     <v>       0.00095212       0.00007904       0.15798587 </v>
    </varray>
   </crystal>
   <varray name="positions" >
    <v>       0.51654812       0.96203421       0.96837467 </v>
    <v>       0.97249960       0.46228327       0.02046872 </v>
    <v>       0.37483409       0.00745819       0.21367946 </v>
    <v>       0.53851142       0.18826036       0.01736262 </v>
    <v>       0.64624690       0.11394327       0.81658941 </v>
    <v>       0.38130068       0.82247432       0.12963190 </v>
    <v>       0.55764411       0.87157455       0.86760742 </v>
    <v>       0.97033789       0.68981376       0.97258550 </v>
    <v>       0.14033077       0.49925498       0.80816150 </v>
    <v>       0.11410293       0.31476759       0.88695687 </v>
    <v>       0.83838054       0.62152234       0.14667431 </v>
    <v>       0.91586498       0.37420282       0.10913000 </v>
    <v>       0.27856659       0.22118110       0.49720475 </v>
    <v>       0.72287651       0.77736584       0.49927018 </v>
    <v>       0.77720867       0.27750435       0.50014078 </v>
    <v>       0.22121087       0.72059397       0.50346209 </v>
    <v>       0.00036545       0.00182752      -0.00076308 </v>
    <v>       0.49974411       0.50152644       0.00080602 </v>
    <v>       0.57302296       0.09610317       0.93579299 </v>
    <v>       0.41632140       0.93022130       0.10997662 </v>
    <v>       0.08492770       0.42472511       0.90128893 </v>
    <v>       0.92226045       0.59984907       0.04411616 </v>
    <v>      -0.00052337      -0.00009584       0.49974236 </v>
    <v>       0.50057464       0.50006598       0.50009141 </v>
   </varray>
  </structure>
  <varray name="forces" >
   <v>       0.25074450       0.07071657      -0.25850295 </v>
   <v>      -0.22391676       0.15295887       0.16755420 </v>
   <v>       0.12905488      -0.03124978      -0.16724856 </v>
   <v>       0.07498444      -0.04770528      -0.08975479 </v>
   <v>      -0.08649186      -0.05582521       0.08420287 </v>
   <v>       0.11492509       0.15725275      -0.09528112 </v>
   <v>      -0.13767348       0.06904694       0.17065819 </v>
   <v>      -0.07721638      -0.02464995       0.06610364 </v>
   <v>      -0.13377791      -0.00531011       0.12182383 </v>
   <v>      -0.09802506       0.16198622       0.06506765 </v>
   <v>       0.07924812      -0.03992378      -0.06568958 </v>
   <v>       0.15762693       0.05631548      -0.13567702 </v>
   <v>       0.03067712      -0.04886103      -0.08945544 </v>
   <v>       0.02864099      -0.01578454      -0.01964846 </v>
   <v>      -0.02902957      -0.01804858       0.00287812 </v>
   <v>      -0.03854068      -0.06954094       0.10700966 </v>
   <v>       0.02267161       0.09674499      -0.03513465 </v>
   <v>      -0.01578406       0.08126913       0.03689294 </v>
   <v>      -0.19911997      -0.06583969       0.18537378 </v>
   <v>      -0.15164439      -0.10725955       0.16958629 </v>
   <v>       0.11680863      -0.16881088      -0.09738103 </v>
   <v>       0.18361974      -0.14025873      -0.11640226 </v>
   <v>      -0.01544781      -0.00638443      -0.00676912 </v>
   <v>       0.01766586      -0.00083848      -0.00020617 </v>
  </varray>
  <varray name="stress" >
   <v>      -1.34050793      -0.11642534      -0.28250441 </v>
   <v>      -0.11653885      -3.88968137      -0.14869827 </v>
   <v>      -0.28245399      -0.14875885      -0.95880057 </v>
  </varray>
  <energy>
   <i name="e_fr_energy">   -296.79714319 </i>
   <i name="e_wo_entrp">   -296.79714319 </i>
   <i name="e_0_energy">   -296.79714319 </i>
  </energy>
  <time name="totalsc">   60.79   60.88</time>
 </calculation>
 <calculation>
  <scstep>
   <time name="total">    6.37    6.37</time>
   <energy>
    <i name="alphaZ">     57.27564547 </i>
    <i name="ewald">  -2296.19216829 </i>
    <i name="hartreedc">  -1168.89506349 </i>
    <i name="XCdc">    -71.82115907 </i>
    <i name="pawpsdc">   6537.42603559 </i>
    <i name="pawaedc">  -6387.28161765 </i>
    <i name="eentropy">     -0.00000000 </i>
    <i name="bandstr">   -527.93110192 </i>
    <i name="atom">   3560.73399828 </i>
    <i name="e_fr_energy">   -296.68543108 </i>
    <i name="e_wo_entrp">   -296.68543108 </i>
    <i name="e_0_energy">   -296.68543108 </i>
   </energy>
  </scstep>
  <scstep>
   <time name="total">    6.35    6.36</time>
   <energy>
    <i name="e_fr_energy">   -296.78276400 </i>
    <i name="e_wo_entrp">   -296.78276400 </i>
    <i name="e_0_energy">   -296.78276400 </i>
   </energy>
  </scstep>
  <scstep>
   <time name="total">    6.36    6.37</time>
   <energy>
    <i name="e_fr_energy">   -296.80226706 </i>
    <i name="e_wo_entrp">   -296.80226706 </i>
    <i name="e_0_energy">   -296.80226706 </i>
   </energy>
  </scstep>
  <scstep>
   <time name="total">    6.37    6.38</time>
   <energy>
    <i name="e_fr_energy">   -296.80658843 </i>
    <i name="e_wo_entrp">   -296.80658843 </i>
    <i name="e_0_energy">   -296.80658843 </i>
   </energy>
  </scstep>
  <scstep>
   <time name="total">    6.36    6.37</time>
   <energy>
    <i name="e_fr_energy">   -296.80755568 </i>
    <i name="e_wo_entrp">   -296.80755568 </i>
    <i name="e_0_energy">   -296.80755568 </i>
   </energy>
  </scstep>
  <scstep>
   <time name="total">    6.35    6.36</time>
   <energy>
    <i name="e_fr_energy">   -296.80785617 </i>
    <i name="e_wo_entrp">   -296.80785617 </i>
    <i name="e_0_energy">   -296.80785617 </i>
   </energy>
  </scstep>
  <scstep>
   <time name="total">    6.36    6.37</time>
   <energy>
    <i name="e_fr_energy">   -296.80795414 </i>
    <i name="e_wo_entrp">   -296.80795414 </i>
    <i name="e_0_energy">   -296.80795414 </i>
   </energy>
  </scstep>
  <scstep>
   <time name="total">    6.37    6.38</time>
   <energy>
    <i name="e_fr_energy">   -296.80798071 </i>
    <i name="e_wo_entrp">   -296.80798071 </i>
    <i name="e_0_energy">   -296.80798071 </i>
   </energy>
  </scstep>
  <scstep>
   <time name="total">    6.37    6.38</time>
   <energy>
    <i name="e_fr_energy">   -296.80798688 </i>
    <i name="e_wo_entrp">   -296.80798688 </i>
    <i name="e_0_energy">   -296.80798688 </i>
   </energy>
  </scstep>
  <scstep>
   <time name="total">    7.30    7.31</time>
   <energy>
    <i name="alphaZ">     57.27564547 </i>
    <i name="ewald">  -2296.19216829 </i>
    <i name="hartreedc">  -1173.12216406 </i>
    <i name="XCdc">    -71.60665505 </i>
    <i name="pawpsdc">   6478.78512023 </i>
    <i name="pawaedc">  -6328.68262380 </i>
    <i name="eentropy">     -0.00000000 </i>
    <i name="bandstr">   -523.99914112 </i>
    <i name="atom">   3560.73399828 </i>
    <i name="e_fr_energy">   -296.80798833 </i>
    <i name="e_wo_entrp">   -296.80798833 </i>
    <i name="e_0_energy">   -296.80798833 </i>
   </energy>
  </scstep>
  <structure>
   <crystal>
    <varray name="basis" >
     <v>       8.94369080      -0.00158738      -0.07207269 </v>
     <v>      -0.00159092       8.88123467      -0.00640118 </v>
     <v>      -0.05084242      -0.00451230       6.34987491 </v>
    </varray>
    <i name="volume">    504.34420133 </i>
    <varray name="rec_basis" >
     <v>       0.11181788       0.00002068       0.00089532 </v>
     <v>       0.00002063       0.11259702       0.00008018 </v>
     <v>       0.00126918       0.00011374       0.15749366 </v>
    </varray>
   </crystal>
   <varray name="positions" >
    <v>       0.51654759       0.96219358       0.96842768 </v>
    <v>       0.97253387       0.46246153       0.02042085 </v>
    <v>       0.37528443       0.00711126       0.21275837 </v>
    <v>       0.53878272       0.18792105       0.01686078 </v>
    <v>       0.64557535       0.11374809       0.81762659 </v>
    <v>       0.38159396       0.82295085       0.12928356 </v>
    <v>       0.55724761       0.87190502       0.86836696 </v>
    <v>       0.96998514       0.68949886       0.97306097 </v>
    <v>       0.13976275       0.49892565       0.80896497 </v>
    <v>       0.11385520       0.31521819       0.88719255 </v>
    <v>       0.83906276       0.62132990       0.14583274 </v>
    <v>       0.91641995       0.37457248       0.10842741 </v>
    <v>       0.27896570       0.22064034       0.49585734 </v>
    <v>       0.72316122       0.77719843       0.49892639 </v>
    <v>       0.77695592       0.27738907       0.50020729 </v>
    <v>       0.22070942       0.71977994       0.50511961 </v>
    <v>       0.00055048       0.00273509      -0.00115514 </v>
    <v>       0.49961648       0.50228530       0.00122023 </v>
    <v>       0.57275903       0.09584089       0.93594541 </v>
    <v>       0.41662026       0.93038701       0.10971221 </v>
    <v>       0.08459640       0.42487370       0.90150241 </v>
    <v>       0.92249589       0.59954593       0.04404248 </v>
    <v>      -0.00076043      -0.00014625       0.49961951 </v>
    <v>       0.50083631       0.50009176       0.50013040 </v>
   </varray>
  </structure>
  <varray name="forces" >
   <v>       0.06633489      -0.09721669      -0.10305306 </v>
   <v>      -0.04354466      -0.03775641       0.05264813 </v>
   <v>       0.08350219       0.11334731      -0.06948195 </v>
   <v>       0.02764754       0.07136282      -0.01016874 </v>
   <v>      -0.02399748      -0.05557556       0.01249919 </v>
   <v>       0.09059692       0.01698869      -0.10154662 </v>
   <v>      -0.11160949      -0.03310684       0.11185436 </v>
   <v>      -0.02135747       0.07132540       0.00574767 </v>
   <v>      -0.07508068       0.12046139       0.04240898 </v>
   <v>      -0.08400653       0.02512365       0.07279376 </v>
   <v>       0.01105498      -0.03736201      -0.00749876 </v>
   <v>       0.10969730      -0.04824691      -0.07674346 </v>
   <v>       0.02248147      -0.03764332      -0.07196705 </v>
   <v>       0.02672596      -0.01232448      -0.01501516 </v>
   <v>      -0.02832188      -0.01907169       0.00275916 </v>
   <v>      -0.02903878      -0.05251026       0.08600535 </v>
   <v>       0.01875623       0.08487223      -0.03580242 </v>
   <v>      -0.01246303       0.07255880       0.03781153 </v>
   <v>      -0.11762243       0.07418779       0.14384878 </v>
   <v>      -0.02014219      -0.10576856       0.01165886 </v>
   <v>       0.00923600      -0.15572910       0.00349836 </v>
   <v>       0.09969779       0.05268456      -0.08542572 </v>
   <v>      -0.00246155      -0.00642333      -0.00332112 </v>
   <v>       0.00391489      -0.00417747      -0.00351008 </v>
  </varray>
  <varray name="stress" >
   <v>      -1.35388007      -0.00997122      -0.41487123 </v>
   <v>      -0.01011959       0.35836644       0.01783124 </v>
   <v>      -0.41480856       0.01771895      -1.63352738 </v>
  </varray>
  <energy>
   <i name="e_fr_energy">   -296.80798833 </i>
   <i name="e_wo_entrp">   -296.80798833 </i>
   <i name="e_0_energy">   -296.80798833 </i>
  </energy>
  <time name="totalsc">   73.52   73.62</time>
 </calculation>
 <calculation>
  <scstep>
   <time name="total">    6.37    6.37</time>
   <energy>
    <i name="alphaZ">     57.18399313 </i>
    <i name="ewald">  -2292.33464998 </i>
    <i name="hartreedc">  -1173.65349343 </i>
    <i name="XCdc">    -71.65694262 </i>
    <i name="pawpsdc">   6508.16064522 </i>
    <i name="pawaedc">  -6358.03876946 </i>
    <i name="eentropy">     -0.00000000 </i>
    <i name="bandstr">   -527.17826017 </i>
    <i name="atom">   3560.73399828 </i>
    <i name="e_fr_energy">   -296.78347902 </i>
    <i name="e_wo_entrp">   -296.78347902 </i>
    <i name="e_0_energy">   -296.78347902 </i>
   </energy>
  </scstep>
  <scstep>
   <time name="total">    6.36    6.38</time>
   <energy>
    <i name="e_fr_energy">   -296.80389072 </i>
    <i name="e_wo_entrp">   -296.80389072 </i>
    <i name="e_0_energy">   -296.80389072 </i>
   </energy>
  </scstep>
  <scstep>
   <time name="total">    6.36    6.37</time>
   <energy>
    <i name="e_fr_energy">   -296.80799131 </i>
    <i name="e_wo_entrp">   -296.80799131 </i>
    <i name="e_0_energy">   -296.80799131 </i>
   </energy>
  </scstep>
  <scstep>
   <time name="total">    6.38    6.38</time>
   <energy>
    <i name="e_fr_energy">   -296.80889993 </i>
    <i name="e_wo_entrp">   -296.80889993 </i>
    <i name="e_0_energy">   -296.80889993 </i>
   </energy>
  </scstep>
  <scstep>
   <time name="total">    6.35    6.36</time>
   <energy>
    <i name="e_fr_energy">   -296.80910265 </i>
    <i name="e_wo_entrp">   -296.80910265 </i>
    <i name="e_0_energy">   -296.80910265 </i>
   </energy>
  </scstep>
  <scstep>
   <time name="total">    6.36    6.37</time>
   <energy>
    <i name="e_fr_energy">   -296.80916584 </i>
    <i name="e_wo_entrp">   -296.80916584 </i>
    <i name="e_0_energy">   -296.80916584 </i>
   </energy>
  </scstep>
  <scstep>
   <time name="total">    6.37    6.40</time>
   <energy>
    <i name="e_fr_energy">   -296.80918634 </i>
    <i name="e_wo_entrp">   -296.80918634 </i>
    <i name="e_0_energy">   -296.80918634 </i>
   </energy>
  </scstep>
  <scstep>
   <time name="total">    6.36    6.37</time>
   <energy>
    <i name="e_fr_energy">   -296.80919173 </i>
    <i name="e_wo_entrp">   -296.80919173 </i>
    <i name="e_0_energy">   -296.80919173 </i>
   </energy>
  </scstep>
  <scstep>
   <time name="total">    7.29    7.30</time>
   <energy>
    <i name="alphaZ">     57.18399313 </i>
    <i name="ewald">  -2292.33464998 </i>
    <i name="hartreedc">  -1175.59411951 </i>
    <i name="XCdc">    -71.56003705 </i>
    <i name="pawpsdc">   6485.71378813 </i>
    <i name="pawaedc">  -6335.61142207 </i>
    <i name="eentropy">     -0.00000000 </i>
    <i name="bandstr">   -525.34074395 </i>
    <i name="atom">   3560.73399828 </i>
    <i name="e_fr_energy">   -296.80919304 </i>
    <i name="e_wo_entrp">   -296.80919304 </i>
    <i name="e_0_energy">   -296.80919304 </i>
   </energy>
  </scstep>
  <structure>
   <crystal>
    <varray name="basis" >
     <v>       8.94946964      -0.00196262      -0.08043276 </v>
     <v>      -0.00196696       8.87708002      -0.00729816 </v>
     <v>      -0.05673685      -0.00514394       6.35902086 </v>
    </varray>
    <i name="volume">    505.15254512 </i>
    <varray name="rec_basis" >
     <v>       0.11174743       0.00002558       0.00099706 </v>
     <v>       0.00002553       0.11264974       0.00009135 </v>
     <v>       0.00141348       0.00012961       0.15726963 </v>
    </varray>
   </crystal>
   <varray name="positions" >
    <v>       0.51654739       0.96226667       0.96845191 </v>
    <v>       0.97254953       0.46254327       0.02039907 </v>
    <v>       0.37548983       0.00695211       0.21233827 </v>
    <v>       0.53890649       0.18776543       0.01663191 </v>
    <v>       0.64526880       0.11365863       0.81809935 </v>
    <v>       0.38172792       0.82316937       0.12912493 </v>
    <v>       0.55706673       0.87205660       0.86871335 </v>
    <v>       0.96982407       0.68935448       0.97327761 </v>
    <v>       0.13950341       0.49877466       0.80933110 </v>
[...]
       <r>    7.7017    0.0000 </r>
       <r>    7.8485    0.0000 </r>
       <r>    7.9606    0.0000 </r>
       <r>    8.0680    0.0000 </r>
       <r>    8.2396    0.0000 </r>
      </set>
      <set comment="kpoint 19">
       <r>  -20.7458    1.0000 </r>
       <r>  -20.7439    1.0000 </r>
       <r>  -18.3915    1.0000 </r>
       <r>  -18.3900    1.0000 </r>
       <r>  -11.9424    1.0000 </r>
       <r>  -11.9297    1.0000 </r>
       <r>  -11.4272    1.0000 </r>
       <r>  -11.3824    1.0000 </r>
       <r>  -11.1566    1.0000 </r>
       <r>  -11.1341    1.0000 </r>
       <r>  -11.1044    1.0000 </r>
       <r>  -11.0595    1.0000 </r>
       <r>   -9.8114    1.0000 </r>
       <r>   -9.8003    1.0000 </r>
       <r>   -9.0838    1.0000 </r>
       <r>   -9.0741    1.0000 </r>
       <r>   -7.3064    1.0000 </r>
       <r>   -7.2991    1.0000 </r>
       <r>   -5.9583    1.0000 </r>
       <r>   -5.7427    1.0000 </r>
       <r>   -5.7194    1.0000 </r>
       <r>   -5.6499    1.0000 </r>
       <r>   -5.1945    1.0000 </r>
       <r>   -5.1841    1.0000 </r>
       <r>   -2.4750    1.0000 </r>
       <r>   -2.1026    1.0000 </r>
       <r>   -1.8845    1.0000 </r>
       <r>   -1.8651    1.0000 </r>
       <r>   -1.4721    1.0000 </r>
       <r>   -1.3790    1.0000 </r>
       <r>   -1.3289    1.0000 </r>
       <r>   -1.1299    1.0000 </r>
       <r>   -0.9882    1.0000 </r>
       <r>   -0.8844    1.0000 </r>
       <r>   -0.7540    1.0000 </r>
       <r>   -0.6547    1.0000 </r>
       <r>   -0.5914    1.0000 </r>
       <r>   -0.5023    1.0000 </r>
       <r>   -0.3818    1.0000 </r>
       <r>   -0.2889    1.0000 </r>
       <r>   -0.0725    1.0000 </r>
       <r>    0.0085    1.0000 </r>
       <r>    0.5068    1.0000 </r>
       <r>    0.9083    1.0000 </r>
       <r>    3.0203    0.0000 </r>
       <r>    3.2404    0.0000 </r>
       <r>    3.4640    0.0000 </r>
       <r>    4.0050    0.0000 </r>
       <r>    4.2694    0.0000 </r>
       <r>    4.3494    0.0000 </r>
       <r>    5.2120    0.0000 </r>
       <r>    5.9616    0.0000 </r>
       <r>    6.2313    0.0000 </r>
       <r>    6.4589    0.0000 </r>
       <r>    6.6668    0.0000 </r>
       <r>    6.8985    0.0000 </r>
       <r>    7.0003    0.0000 </r>
       <r>    7.1762    0.0000 </r>
       <r>    7.6199    0.0000 </r>
       <r>    7.7021    0.0000 </r>
       <r>    7.8546    0.0000 </r>
       <r>    7.9547    0.0000 </r>
       <r>    8.0616    0.0000 </r>
       <r>    8.2424    0.0000 </r>
      </set>
     </set>
    </set>
   </array>
  </eigenvalues>
  <separator name="orbital magnetization" >
   <v name="MAGDIPOLOUT">      0.00000000      0.00000000      0.00000000</v>
  </separator>
  <dos>
   <i name="efermi">      1.76223161 </i>
   <total>
    <array>
     <dimension dim="1">gridpoints</dimension>
     <dimension dim="2">spin</dimension>
     <field>energy</field>
     <field>total</field>
     <field>integrated</field>
     <set>
      <set comment="spin 1">
       <r>   -22.1979     0.0000     0.0000 </r>
       <r>   -22.0915     0.0000     0.0000 </r>
       <r>   -21.9850     0.0000     0.0000 </r>
       <r>   -21.8786     0.0000     0.0000 </r>
       <r>   -21.7722     0.0000     0.0000 </r>
       <r>   -21.6657     0.0000     0.0000 </r>
       <r>   -21.5593     0.0000     0.0000 </r>
       <r>   -21.4529     0.0000     0.0000 </r>
       <r>   -21.3464     0.0000     0.0000 </r>
       <r>   -21.2400     0.0000     0.0000 </r>
       <r>   -21.1336     0.0000     0.0000 </r>
       <r>   -21.0272     0.0000     0.0000 </r>
       <r>   -20.9207     0.0000     0.0000 </r>
       <r>   -20.8143     0.9496     0.1011 </r>
       <r>   -20.7079    31.1453     3.4159 </r>
       <r>   -20.6014     5.4875     3.9999 </r>
       <r>   -20.4950     0.0009     4.0000 </r>
       <r>   -20.3886     0.0000     4.0000 </r>
       <r>   -20.2821     0.0000     4.0000 </r>
       <r>   -20.1757     0.0000     4.0000 </r>
       <r>   -20.0693     0.0000     4.0000 </r>
       <r>   -19.9629     0.0000     4.0000 </r>
       <r>   -19.8564     0.0000     4.0000 </r>
       <r>   -19.7500     0.0000     4.0000 </r>
       <r>   -19.6436     0.0000     4.0000 </r>
       <r>   -19.5371     0.0000     4.0000 </r>
       <r>   -19.4307     0.0000     4.0000 </r>
       <r>   -19.3243     0.0000     4.0000 </r>
       <r>   -19.2178     0.0000     4.0000 </r>
       <r>   -19.1114     0.0000     4.0000 </r>
       <r>   -19.0050     0.0000     4.0000 </r>
       <r>   -18.8985     0.0000     4.0000 </r>
       <r>   -18.7921     0.0000     4.0000 </r>
       <r>   -18.6857     0.0000     4.0000 </r>
       <r>   -18.5793     0.0000     4.0000 </r>
       <r>   -18.4728     0.3697     4.0393 </r>
       <r>   -18.3664    27.8464     7.0030 </r>
       <r>   -18.2600     9.3629     7.9995 </r>
       <r>   -18.1535     0.0043     8.0000 </r>
       <r>   -18.0471     0.0000     8.0000 </r>
       <r>   -17.9407     0.0000     8.0000 </r>
       <r>   -17.8342     0.0000     8.0000 </r>
       <r>   -17.7278     0.0000     8.0000 </r>
       <r>   -17.6214     0.0000     8.0000 </r>
       <r>   -17.5150     0.0000     8.0000 </r>
       <r>   -17.4085     0.0000     8.0000 </r>
       <r>   -17.3021     0.0000     8.0000 </r>
       <r>   -17.1957     0.0000     8.0000 </r>
       <r>   -17.0892     0.0000     8.0000 </r>
       <r>   -16.9828     0.0000     8.0000 </r>
       <r>   -16.8764     0.0000     8.0000 </r>
       <r>   -16.7699     0.0000     8.0000 </r>
       <r>   -16.6635     0.0000     8.0000 </r>
       <r>   -16.5571     0.0000     8.0000 </r>
       <r>   -16.4507     0.0000     8.0000 </r>
       <r>   -16.3442     0.0000     8.0000 </r>
       <r>   -16.2378     0.0000     8.0000 </r>
       <r>   -16.1314     0.0000     8.0000 </r>
       <r>   -16.0249     0.0000     8.0000 </r>
       <r>   -15.9185     0.0000     8.0000 </r>
       <r>   -15.8121     0.0000     8.0000 </r>
       <r>   -15.7056     0.0000     8.0000 </r>
       <r>   -15.5992     0.0000     8.0000 </r>
       <r>   -15.4928     0.0000     8.0000 </r>
       <r>   -15.3863     0.0000     8.0000 </r>
       <r>   -15.2799     0.0000     8.0000 </r>
       <r>   -15.1735     0.0000     8.0000 </r>
       <r>   -15.0671     0.0000     8.0000 </r>
       <r>   -14.9606     0.0000     8.0000 </r>
       <r>   -14.8542     0.0000     8.0000 </r>
       <r>   -14.7478     0.0000     8.0000 </r>
       <r>   -14.6413     0.0000     8.0000 </r>
       <r>   -14.5349     0.0000     8.0000 </r>
       <r>   -14.4285     0.0000     8.0000 </r>
       <r>   -14.3220     0.0000     8.0000 </r>
       <r>   -14.2156     0.0000     8.0000 </r>
       <r>   -14.1092     0.0000     8.0000 </r>
       <r>   -14.0028     0.0000     8.0000 </r>
       <r>   -13.8963     0.0000     8.0000 </r>
       <r>   -13.7899     0.0000     8.0000 </r>
       <r>   -13.6835     0.0000     8.0000 </r>
       <r>   -13.5770     0.0000     8.0000 </r>
       <r>   -13.4706     0.0000     8.0000 </r>
       <r>   -13.3642     0.0000     8.0000 </r>
       <r>   -13.2577     0.0000     8.0000 </r>
       <r>   -13.1513     0.0000     8.0000 </r>
       <r>   -13.0449     0.0000     8.0000 </r>
       <r>   -12.9385     0.0000     8.0000 </r>
       <r>   -12.8320     0.0000     8.0000 </r>
       <r>   -12.7256     0.0000     8.0000 </r>
       <r>   -12.6192     0.0000     8.0000 </r>
       <r>   -12.5127     0.0000     8.0000 </r>
       <r>   -12.4063     0.0000     8.0000 </r>
       <r>   -12.2999     0.0000     8.0000 </r>
       <r>   -12.1934     0.0000     8.0000 </r>
       <r>   -12.0870     0.0052     8.0005 </r>
       <r>   -11.9806     6.8961     8.7345 </r>
       <r>   -11.8741    29.5547    11.8800 </r>
       <r>   -11.7677     1.1273    12.0000 </r>
       <r>   -11.6613     0.0029    12.0003 </r>
       <r>   -11.5549     1.5197    12.1621 </r>
       <r>   -11.4484    13.7028    13.6204 </r>
       <r>   -11.3420    18.3307    15.5714 </r>
       <r>   -11.2356     4.5603    16.0567 </r>
       <r>   -11.1291    24.3904    18.6526 </r>
       <r>   -11.0227    38.6775    22.7691 </r>
       <r>   -10.9163    11.4970    23.9927 </r>
       <r>   -10.8098     0.0686    24.0000 </r>
       <r>   -10.7034     0.0000    24.0000 </r>
       <r>   -10.5970     0.0000    24.0000 </r>
       <r>   -10.4906     0.0000    24.0000 </r>
       <r>   -10.3841     0.0000    24.0000 </r>
       <r>   -10.2777     0.0000    24.0000 </r>
       <r>   -10.1713     0.0000    24.0000 </r>
       <r>   -10.0648     0.0000    24.0000 </r>
       <r>    -9.9584     0.0011    24.0001 </r>
       <r>    -9.8520     4.6916    24.4994 </r>
       <r>    -9.7455    31.4022    27.8416 </r>
       <r>    -9.6391     1.4884    28.0000 </r>
       <r>    -9.5327     0.0000    28.0000 </r>
       <r>    -9.4263     0.0000    28.0000 </r>
       <r>    -9.3198     0.0000    28.0000 </r>
       <r>    -9.2134     0.0036    28.0004 </r>
       <r>    -9.1070     8.3693    28.8911 </r>
       <r>    -9.0005    28.6720    31.9427 </r>
       <r>    -8.8941     0.5384    32.0000 </r>
       <r>    -8.7877     0.0000    32.0000 </r>
       <r>    -8.6812     0.0000    32.0000 </r>
       <r>    -8.5748     0.0000    32.0000 </r>
       <r>    -8.4684     0.0000    32.0000 </r>
       <r>    -8.3619     0.0000    32.0000 </r>
       <r>    -8.2555     0.0000    32.0000 </r>
       <r>    -8.1491     0.0000    32.0000 </r>
       <r>    -8.0427     0.0000    32.0000 </r>
       <r>    -7.9362     0.0000    32.0000 </r>
       <r>    -7.8298     0.0000    32.0000 </r>
       <r>    -7.7234     0.0000    32.0000 </r>
       <r>    -7.6169     0.0000    32.0000 </r>
       <r>    -7.5105     0.0000    32.0000 </r>
       <r>    -7.4041     0.0938    32.0100 </r>
       <r>    -7.2976    21.1990    34.2662 </r>
       <r>    -7.1912    16.2580    35.9965 </r>
       <r>    -7.0848     0.0325    36.0000 </r>
       <r>    -6.9784     0.0000    36.0000 </r>
       <r>    -6.8719     0.0000    36.0000 </r>
       <r>    -6.7655     0.0000    36.0000 </r>
       <r>    -6.6591     0.0000    36.0000 </r>
       <r>    -6.5526     0.0000    36.0000 </r>
       <r>    -6.4462     0.0048    36.0005 </r>
       <r>    -6.3398     0.3831    36.0413 </r>
       <r>    -6.2333     0.1758    36.0600 </r>
       <r>    -6.1269     1.8004    36.2516 </r>
       <r>    -6.0205     1.4255    36.4033 </r>
       <r>    -5.9141     5.3300    36.9706 </r>
       <r>    -5.8076     3.8211    37.3773 </r>
       <r>    -5.7012    32.3812    40.8236 </r>
       <r>    -5.5948    11.1174    42.0069 </r>
       <r>    -5.4883     4.7804    42.5156 </r>
       <r>    -5.3819     4.2125    42.9640 </r>
       <r>    -5.2755     4.1663    43.4074 </r>
       <r>    -5.1690    27.3331    46.3165 </r>
       <r>    -5.0626    14.1623    47.8238 </r>
       <r>    -4.9562     0.7558    47.9042 </r>
       <r>    -4.8498     0.3787    47.9445 </r>
       <r>    -4.7433     0.2939    47.9758 </r>
       <r>    -4.6369     0.2269    48.0000 </r>
       <r>    -4.5305     0.0004    48.0000 </r>
       <r>    -4.4240     0.0000    48.0000 </r>
       <r>    -4.3176     0.0000    48.0000 </r>
       <r>    -4.2112     0.0000    48.0000 </r>
       <r>    -4.1047     0.0000    48.0000 </r>
       <r>    -3.9983     0.0000    48.0000 </r>
       <r>    -3.8919     0.0000    48.0000 </r>
       <r>    -3.7854     0.0000    48.0000 </r>
       <r>    -3.6790     0.0000    48.0000 </r>
       <r>    -3.5726     0.0000    48.0000 </r>
       <r>    -3.4662     0.0000    48.0000 </r>
       <r>    -3.3597     0.0000    48.0000 </r>
       <r>    -3.2533     0.0000    48.0000 </r>
       <r>    -3.1469     0.0000    48.0000 </r>
       <r>    -3.0404     0.0000    48.0000 </r>
       <r>    -2.9340     0.0000    48.0000 </r>
       <r>    -2.8276     0.0000    48.0000 </r>
       <r>    -2.7211     0.0096    48.0010 </r>
       <r>    -2.6147     1.2318    48.1321 </r>
       <r>    -2.5083     7.1443    48.8925 </r>
       <r>    -2.4019     8.6283    49.8108 </r>
       <r>    -2.2954     5.8253    50.4308 </r>
       <r>    -2.1890     8.5804    51.3440 </r>
       <r>    -2.0826     9.4481    52.3496 </r>
       <r>    -1.9761     4.4124    52.8192 </r>
       <r>    -1.8697    19.8529    54.9321 </r>
       <r>    -1.7633    19.6155    57.0198 </r>
       <r>    -1.6568    10.2692    58.1128 </r>
       <r>    -1.5504     7.1883    58.8778 </r>
       <r>    -1.4440     9.8994    59.9314 </r>
       <r>    -1.3376    10.5317    61.0523 </r>
       <r>    -1.2311    13.5831    62.4980 </r>
       <r>    -1.1247     9.8313    63.5443 </r>
       <r>    -1.0183    12.4994    64.8746 </r>
       <r>    -0.9118    14.2171    66.3878 </r>
       <r>    -0.8054    17.2538    68.2241 </r>
       <r>    -0.6990    15.4269    69.8660 </r>
       <r>    -0.5925    22.8738    72.3004 </r>
       <r>    -0.4861    18.0064    74.2169 </r>
       <r>    -0.3797    19.4338    76.2852 </r>
       <r>    -0.2732    26.3574    79.0904 </r>
       <r>    -0.1668    23.3391    81.5744 </r>
       <r>    -0.0604    17.6724    83.4553 </r>
       <r>     0.0460    12.1938    84.7531 </r>
       <r>     0.1525     5.7022    85.3600 </r>
       <r>     0.2589     2.7870    85.6566 </r>
       <r>     0.3653     4.2448    86.1084 </r>
       <r>     0.4718     5.0421    86.6450 </r>
       <r>     0.5782     5.6734    87.2488 </r>
       <r>     0.6846     0.8603    87.3404 </r>
       <r>     0.7911     1.5042    87.5005 </r>
       <r>     0.8975     1.2642    87.6350 </r>
       <r>     1.0039     1.5788    87.8031 </r>
       <r>     1.1103     0.3580    87.8412 </r>
       <r>     1.2168     0.9064    87.9376 </r>
       <r>     1.3232     0.0639    87.9444 </r>
       <r>     1.4296     0.0034    87.9448 </r>
       <r>     1.5361     0.3618    87.9833 </r>
       <r>     1.6425     0.1567    88.0000 </r>
       <r>     1.7489     0.0001    88.0000 </r>
       <r>     1.8554     0.0000    88.0000 </r>
       <r>     1.9618     0.0000    88.0000 </r>
       <r>     2.0682     0.0000    88.0000 </r>
       <r>     2.1746     0.0000    88.0000 </r>
       <r>     2.2811     0.0000    88.0000 </r>
       <r>     2.3875     0.0000    88.0000 </r>
       <r>     2.4939     0.0000    88.0000 </r>
       <r>     2.6004     0.0000    88.0000 </r>
       <r>     2.7068     0.0462    88.0049 </r>
       <r>     2.8132     0.6186    88.0707 </r>
       <r>     2.9197     1.2783    88.2068 </r>
       <r>     3.0261     2.5849    88.4819 </r>
       <r>     3.1325     2.5112    88.7492 </r>
       <r>     3.2390     6.6573    89.4577 </r>
       <r>     3.3454     2.7061    89.7457 </r>
       <r>     3.4518     1.9058    89.9486 </r>
       <r>     3.5582     3.0260    90.2706 </r>
       <r>     3.6647     0.5847    90.3329 </r>
       <r>     3.7711     4.2005    90.7799 </r>
       <r>     3.8775     5.2305    91.3366 </r>
       <r>     3.9840     6.3710    92.0147 </r>
       <r>     4.0904     7.1852    92.7794 </r>
       <r>     4.1968     9.3595    93.7755 </r>
       <r>     4.3033    21.6096    96.0754 </r>
       <r>     4.4097    10.1230    97.1528 </r>
       <r>     4.5161     7.4767    97.9486 </r>
       <r>     4.6225     5.7354    98.5590 </r>
       <r>     4.7290     3.6461    98.9471 </r>
       <r>     4.8354     0.4964    98.9999 </r>
       <r>     4.9418     0.0010    99.0000 </r>
       <r>     5.0483     0.0044    99.0005 </r>
       <r>     5.1547     1.5256    99.1628 </r>
       <r>     5.2611     5.8027    99.7804 </r>
       <r>     5.3676     9.4099   100.7819 </r>
       <r>     5.4740    13.1774   102.1844 </r>
       <r>     5.5804     4.8316   102.6986 </r>
       <r>     5.6868     1.4605   102.8541 </r>
       <r>     5.7933     2.4936   103.1194 </r>
       <r>     5.8997     4.5933   103.6083 </r>
       <r>     6.0061     7.1165   104.3657 </r>
       <r>     6.1126     9.9657   105.4264 </r>
       <r>     6.2190     6.4002   106.1076 </r>
       <r>     6.3254     9.5878   107.1280 </r>
       <r>     6.4319     4.3799   107.5941 </r>
       <r>     6.5383     7.5572   108.3985 </r>
       <r>     6.6447    11.5505   109.6278 </r>
       <r>     6.7512    10.0804   110.7006 </r>
       <r>     6.8576    10.2278   111.7892 </r>
       <r>     6.9640    10.9382   112.9533 </r>
       <r>     7.0704    12.6990   114.3049 </r>
       <r>     7.1769     9.5266   115.3188 </r>
       <r>     7.2833    10.5802   116.4449 </r>
       <r>     7.3897    13.9893   117.9338 </r>
       <r>     7.4962    13.6716   119.3888 </r>
       <r>     7.6026    12.8043   120.7516 </r>
       <r>     7.7090    15.0928   122.3579 </r>
       <r>     7.8155    11.7600   123.6095 </r>
       <r>     7.9219    10.0054   124.6744 </r>
       <r>     8.0283    11.5392   125.9025 </r>
       <r>     8.1347    10.3923   127.0086 </r>
       <r>     8.2412     5.9496   127.6418 </r>
       <r>     8.3476     3.3236   127.9955 </r>
       <r>     8.4540     0.0419   128.0000 </r>
       <r>     8.5605     0.0000   128.0000 </r>
       <r>     8.6669     0.0000   128.0000 </r>
       <r>     8.7733     0.0000   128.0000 </r>
       <r>     8.8798     0.0000   128.0000 </r>
       <r>     8.9862     0.0000   128.0000 </r>
       <r>     9.0926     0.0000   128.0000 </r>
       <r>     9.1990     0.0000   128.0000 </r>
       <r>     9.3055     0.0000   128.0000 </r>
       <r>     9.4119     0.0000   128.0000 </r>
       <r>     9.5183     0.0000   128.0000 </r>
       <r>     9.6248     0.0000   128.0000 </r>
       <r>     9.7312     0.0000   128.0000 </r>
      </set>
     </set>
    </array>
   </total>
  </dos>
 </calculation>
 <structure name="finalpos" >
  <crystal>
   <varray name="basis" >
    <v>       8.90527706       0.00272689      -0.11862239 </v>
    <v>       0.00223371       9.03165119      -0.00307070 </v>
    <v>      -0.07877760      -0.00135357       6.51837730 </v>
   </varray>
   <i name="volume">    524.18441470 </i>
   <varray name="rec_basis" >
    <v>       0.11231106      -0.00002732       0.00135733 </v>
    <v>      -0.00003360       0.11072174       0.00002259 </v>
    <v>       0.00204384       0.00005166       0.15343713 </v>
   </varray>
  </crystal>
  <varray name="positions" >
   <v>       0.51476479       0.96795433       0.97152196 </v>
   <v>       0.98129044       0.46933152       0.02362157 </v>
   <v>       0.40032270       0.00470971       0.23419063 </v>
   <v>       0.50846089       0.19307860       0.00176832 </v>
   <v>       0.59893337       0.12595591       0.78835096 </v>
   <v>       0.42779953       0.82032889       0.16533905 </v>
   <v>       0.55559761       0.88024193       0.87328051 </v>
   <v>       0.99065599       0.69428290       0.99324963 </v>
   <v>       0.09646751       0.50406612       0.76118889 </v>
   <v>       0.06678632       0.32025903       0.83022027 </v>
   <v>       0.89888999       0.62881543       0.20630252 </v>
   <v>       0.93916042       0.38237614       0.12183360 </v>
   <v>       0.25564989       0.23761134       0.43976421 </v>
   <v>       0.75880702       0.73589519       0.54125313 </v>
   <v>       0.73884323       0.23532405       0.45520378 </v>
   <v>       0.24184001       0.73715049       0.55707523 </v>
   <v>       0.00042533       0.01912130      -0.03811417 </v>
   <v>       0.49737506       0.51830793       0.03485282 </v>
   <v>       0.54059686       0.10480178       0.91704360 </v>
   <v>       0.44345304       0.92921824       0.13587882 </v>
   <v>       0.05234363       0.42936505       0.85954196 </v>
   <v>       0.95730013       0.60660276       0.07799280 </v>
   <v>      -0.00103968      -0.03301856       0.51944265 </v>
   <v>       0.49843394       0.46667757       0.47754885 </v>
  </varray>
 </structure>
</modeling>
