tetra-FASnI3                            
           1
     8.882100    0.000000    0.000000
     0.000000    8.882100    0.000000
     0.000000    0.000000    6.269800
   C    H    I    N    Sn
     2    10     6     4     2
Direct configuration=     1
   0.51707794  0.96206300  0.96758016
   0.97193638  0.46237146  0.02108436
   0.37445817  0.00778529  0.21447212
   0.53829038  0.18859092  0.01775890
   0.64699157  0.11411337  0.81542468
   0.38112038  0.82219126  0.12991660
   0.55793314  0.87128359  0.86700977
   0.97067468  0.69017037  0.97210614
   0.14089051  0.49962711  0.80736312
   0.11427668  0.31449439  0.88675215
   0.83759702  0.62173631  0.14767546
   0.91539716  0.37388394  0.10969840
   0.27770000  0.22230000  0.50000000
   0.72230000  0.77770000  0.50000000
   0.77770000  0.27770000  0.50000000
   0.22230000  0.72230000  0.50000000
   0.00000000  0.00000000  0.00000000
   0.50000000  0.50000000  0.00000000
   0.57301322  0.09623734  0.93602928
   0.41557288  0.92980777  0.11088943
   0.08563050  0.42423553  0.90068080
   0.92229739  0.59986600  0.04391024
   0.00000000  0.00000000  0.50000000
   0.50000000  0.50000000  0.50000000
tetra-FASnI3                            
           1
     8.907420    0.000098   -0.025123
     0.000098    8.892072   -0.001810
    -0.017734   -0.001278    6.297130
   C    H    I    N    Sn
     2    10     6     4     2
Direct configuration=     2
   0.51709512  0.96203517  0.96753517
   0.97195019  0.46240738  0.02105086
   0.37444931  0.00780559  0.21448777
   0.53828654  0.18858618  0.01778241
   0.64700823  0.11411928  0.81538975
   0.38110410  0.82216551  0.12989774
   0.55794737  0.87128850  0.86700368
   0.97066981  0.69016018  0.97212215
   0.14086922  0.49963614  0.80738563
   0.11427326  0.31449815  0.88677458
   0.83759342  0.62172359  0.14766061
   0.91538552  0.37384584  0.10973716
   0.27801536  0.22190454  0.49901232
   0.72249828  0.77758739  0.49974006
   0.77753654  0.27764358  0.50004768
   0.22190358  0.72169329  0.50122784
   0.00012809  0.00063663 -0.00025831
   0.49990835  0.50053125  0.00027299
   0.57300270  0.09627376  0.93606334
   0.41555436  0.92979671  0.11090574
   0.08566329  0.42421100  0.90066043
   0.92229721  0.59991357  0.04390897
  -0.00019616 -0.00003185  0.49990862
   0.50021432  0.50002627  0.50003437
tetra-FASnI3                            
           1
     8.910920    0.000112   -0.028597
     0.000111    8.893450   -0.002061
    -0.020186   -0.001455    6.300908
   C    H    I    N    Sn
     2    10     6     4     2
Direct configuration=     3
   0.51709747  0.96203133  0.96752898
   0.97195209  0.46241234  0.02104626
   0.37444809  0.00780840  0.21448992
   0.53828601  0.18858553  0.01778565
   0.64701051  0.11412010  0.81538496
   0.38110185  0.82216196  0.12989513
   0.55794933  0.87128918  0.86700285
   0.97066914  0.69015877  0.97212436
   0.14086629  0.49963739  0.80738872
   0.11427279  0.31449867  0.88677767
   0.83759292  0.62172183  0.14765857
   0.91538393  0.37384058  0.10974248
   0.27805856  0.22184992  0.49887653
   0.72252554  0.77757184  0.49970439
   0.77751402  0.27763579  0.50005415
   0.22184927  0.72160953  0.50139660
   0.00014567  0.00072453 -0.00029377
   0.49989579  0.50060462  0.00031054
   0.57300126  0.09627879  0.93606803
   0.41555181  0.92979518  0.11090797
   0.08566780  0.42420761  0.90065764
   0.92229719  0.59992013  0.04390880
  -0.00022323 -0.00003624  0.49989594
   0.50024388  0.50002990  0.50003922
tetra-FASnI3                            
           1
     8.918423   -0.000174   -0.037602
    -0.000175    8.893392   -0.002874
    -0.026536   -0.002028    6.311420
   C    H    I    N    Sn
     2    10     6     4     2
Direct configuration=     4
   0.51683890  0.96200770  0.96791900
   0.97220446  0.46232369  0.02078170
   0.37455908  0.00769805  0.21425305
   0.53834952  0.18848576  0.01766532
   0.64675648  0.11406751  0.81578916
   0.38114939  0.82223419  0.12982594
   0.55786792  0.87137161  0.86716816
   0.97056860  0.69004584  0.97226679
   0.14070339  0.49950913  0.80762636
   0.11423174  0.31455454  0.88682501
   0.83785656  0.62165816  0.14732729
   0.91552322  0.37395303  0.10956448
   0.27823512  0.22162008  0.49830107
   0.72264605  0.77750118  0.49955393
   0.77740998  0.27759203  0.50008453
   0.22162740  0.72125941  0.50210874
   0.00022009  0.00110110 -0.00045317
   0.49984441  0.50091928  0.00047875
   0.57305296  0.09623730  0.93591451
   0.41586720  0.92996965  0.11051083
   0.08537143  0.42442774  0.90092148
   0.92224290  0.59993422  0.04401807
  -0.00032726 -0.00005637  0.49984297
   0.50035846  0.50004283  0.50005762
tetra-FASnI3                            
           1
     8.926871   -0.000495   -0.047741
    -0.000496    8.893327   -0.003790
    -0.033687   -0.002674    6.323255
   C    H    I    N    Sn
     2    10     6     4     2
Direct configuration=     5
   0.51654831  0.96198111  0.96835699
   0.97248817  0.46222387  0.02048471
   0.37468376  0.00757379  0.21398695
   0.53842086  0.18837341  0.01753015
   0.64647102  0.11400832  0.81624309
   0.38120282  0.82231552  0.12974825
   0.55777647  0.87146444  0.86735386
   0.97045560  0.68991869  0.97242672
   0.14052032  0.49936473  0.80789321
   0.11418559  0.31461744  0.88687817
   0.83815289  0.62158646  0.14695534
   0.91567979  0.37407963  0.10936464
   0.27843328  0.22136127  0.49765446
   0.72278151  0.77742162  0.49938499
   0.77729297  0.27754276  0.50011851
   0.22137835  0.72086524  0.50290881
   0.00030369  0.00152509 -0.00063217
   0.49978675  0.50127358  0.00066779
   0.57311100  0.09619057  0.93574203
   0.41622169  0.93016608  0.11006495
   0.08503822  0.42467559  0.90121760
   0.92218192  0.59995009  0.04414081
  -0.00044434 -0.00007904  0.49978327
   0.50048738  0.50005739  0.50007848
tetra-FASnI3                            
           1
     8.931076   -0.000768   -0.053824
    -0.000770    8.890304   -0.004443
    -0.037976   -0.003134    6.329910
   C    H    I    N    Sn
     2    10     6     4     2
Direct configuration=     6
   0.51654812  0.96203421  0.96837467
   0.97249960  0.46228327  0.02046872
   0.37483409  0.00745819  0.21367946
   0.53851142  0.18826036  0.01736262
   0.64624690  0.11394327  0.81658941
   0.38130068  0.82247432  0.12963190
   0.55764411  0.87157455  0.86760742
   0.97033789  0.68981376  0.97258550
   0.14033077  0.49925498  0.80816150
   0.11410293  0.31476759  0.88695687
   0.83838054  0.62152234  0.14667431
   0.91586498  0.37420282  0.10913000
   0.27856659  0.22118110  0.49720475
   0.72287651  0.77736584  0.49927018
   0.77720867  0.27750435  0.50014078
   0.22121087  0.72059397  0.50346209
   0.00036545  0.00182752 -0.00076308
   0.49974411  0.50152644  0.00080602
   0.57302296  0.09610317  0.93579299
   0.41632140  0.93022130  0.10997662
   0.08492770  0.42472511  0.90128893
   0.92226045  0.59984907  0.04411616
  -0.00052337 -0.00009584  0.49974236
   0.50057464  0.50006598  0.50009141
tetra-FASnI3                            
           1
     8.943691   -0.001587   -0.072073
    -0.001591    8.881235   -0.006401
    -0.050842   -0.004512    6.349875
   C    H    I    N    Sn
     2    10     6     4     2
Direct configuration=     7
   0.51654759  0.96219358  0.96842768
   0.97253387  0.46246153  0.02042085
   0.37528443  0.00711126  0.21275837
   0.53878272  0.18792105  0.01686078
   0.64557535  0.11374809  0.81762659
   0.38159396  0.82295085  0.12928356
   0.55724761  0.87190502  0.86836696
   0.96998514  0.68949886  0.97306097
   0.13976275  0.49892565  0.80896497
   0.11385520  0.31521819  0.88719255
   0.83906276  0.62132990  0.14583274
   0.91641995  0.37457248  0.10842741
   0.27896570  0.22064034  0.49585734
   0.72316122  0.77719843  0.49892639
   0.77695592  0.27738907  0.50020729
   0.22070942  0.71977994  0.50511961
   0.00055048  0.00273509 -0.00115514
   0.49961648  0.50228530  0.00122023
   0.57275903  0.09584089  0.93594541
   0.41662026  0.93038701  0.10971221
   0.08459640  0.42487370  0.90150241
   0.92249589  0.59954593  0.04404248
  -0.00076043 -0.00014625  0.49961951
   0.50083631  0.50009176  0.50013040
tetra-FASnI3                            
           1
     8.949470   -0.001963   -0.080433
    -0.001967    8.877080   -0.007298
    -0.056737   -0.005144    6.359021
   C    H    I    N    Sn
     2    10     6     4     2
Direct configuration=     8
   0.51654739  0.96226667  0.96845191
   0.97254953  0.46254327  0.02039907
   0.37548983  0.00695211  0.21233827
   0.53890649  0.18776543  0.01663191
   0.64526880  0.11365863  0.81809935
   0.38172792  0.82316937  0.12912493
   0.55706673  0.87205660  0.86871335
   0.96982407  0.68935448  0.97327761
   0.13950341  0.49877466  0.80933110
   0.11374204  0.31542483  0.88729992
   0.83937430  0.62124162  0.14544929
   0.91667339  0.37474198  0.10810734
   0.27914738  0.22039228  0.49524246
   0.72329123  0.77712165  0.49876974
   0.77684033  0.27733620  0.50023731
   0.22048106  0.71940674  0.50587579
   0.00063491  0.00315127 -0.00133381
   0.49955839  0.50263331  0.00140933
   0.57263837  0.09572061  0.93601464
   0.41675682  0.93046299  0.10959187
   0.08444498  0.42494184  0.90159948
   0.92260353  0.59940692  0.04400909
  -0.00086895 -0.00016939  0.49956309
   0.50095605  0.50010359  0.50014856
tetra-FASnI3                            
           1
     8.950477   -0.002079   -0.084473
    -0.002082    8.877815   -0.007574
    -0.059592   -0.005340    6.361443
   C    H    I    N    Sn
     2    10     6     4     2
Direct configuration=     9
   0.51652737  0.96211757  0.96841755
   0.97259763  0.46244782  0.02038836
   0.37563892  0.00707091  0.21212932
   0.53896458  0.18783024  0.01657456
   0.64514499  0.11356408  0.81826777
   0.38186385  0.82321173  0.12890959
   0.55689011  0.87203756  0.86897856
   0.96976073  0.68941276  0.97333673
   0.13934617  0.49889502  0.80949175
   0.11361642  0.31547245  0.88745346
   0.83948440  0.62116743  0.14531612
   0.91686849  0.37471363  0.10790339
   0.27924248  0.22025409  0.49489223
   0.72337212  0.77707830  0.49868599
   0.77676302  0.27729355  0.50025304
   0.22036058  0.71920417  0.50630338
   0.00068747  0.00340751 -0.00146058
   0.49952318  0.50285012  0.00154368
   0.57250625  0.09581243  0.93622225
   0.41685660  0.93038758  0.10945174
   0.08433863  0.42481751  0.90171330
   0.92271108  0.59949440  0.04389358
  -0.00091088 -0.00018584  0.49953715
   0.50100382  0.50010266  0.50014869
tetra-FASnI3                            
           1
     8.952749   -0.002341   -0.093582
    -0.002341    8.879472   -0.008195
    -0.066029   -0.005781    6.366902
   C    H    I    N    Sn
     2    10     6     4     2
Direct configuration=    10
   0.51648220  0.96178150  0.96834008
   0.97270604  0.46223268  0.02036430
   0.37597484  0.00733868  0.21165868
   0.53909548  0.18797633  0.01644543
   0.64486604  0.11335095  0.81864711
   0.38217009  0.82330721  0.12842455
   0.55649219  0.87199466  0.86957592
   0.96961800  0.68954412  0.97346987
   0.13899188  0.49916632  0.80985354
   0.11333338  0.31557978  0.88779926
   0.83973245  0.62100020  0.14501619
   0.91730811  0.37464975  0.10744408
   0.27945657  0.21994259  0.49410313
   0.72355438  0.77698058  0.49849737
   0.77658876  0.27719739  0.50028837
   0.22008932  0.71874757  0.50726672
   0.00080587  0.00398508 -0.00174615
   0.49944392  0.50333881  0.00184638
   0.57220860  0.09601942  0.93668990
   0.41708140  0.93021758  0.10913610
   0.08409900  0.42453725  0.90196960
   0.92295341  0.59969157  0.04363344
  -0.00100540 -0.00022293  0.49947866
   0.50111148  0.50010056  0.50014906
tetra-FASnI3                            
           1
     8.952987   -0.002445   -0.096465
    -0.002442    8.880481   -0.008268
    -0.068070   -0.005833    6.367941
   C    H    I    N    Sn
     2    10     6     4     2
Direct configuration=    11
   0.51646099  0.96179090  0.96837216
   0.97273335  0.46224530  0.02034721
   0.37610670  0.00743866  0.21147156
   0.53910692  0.18810188  0.01647546
   0.64476649  0.11327622  0.81878447
   0.38226392  0.82326938  0.12825226
   0.55637937  0.87190531  0.86971311
   0.96960498  0.68965384  0.97346161
   0.13884822  0.49925301  0.81000768
   0.11324751  0.31552672  0.88792260
   0.83980834  0.62094355  0.14492424
   0.91743271  0.37457243  0.10733214
   0.27952321  0.21984406  0.49384913
   0.72361417  0.77694899  0.49843900
   0.77653016  0.27716211  0.50029882
   0.22000488  0.71860479  0.50757557
   0.00084516  0.00417541 -0.00184611
   0.49941779  0.50350090  0.00195244
   0.57213587  0.09598309  0.93676630
   0.41714087  0.93020166  0.10907233
   0.08405648  0.42452628  0.90198999
   0.92301999  0.59967203  0.04358179
  -0.00102988 -0.00023592  0.49946278
   0.50113983  0.50009707  0.50014506
tetra-FASnI3                            
           1
     8.953699   -0.002759   -0.105114
    -0.002748    8.883510   -0.008487
    -0.074193   -0.005989    6.371060
   C    H    I    N    Sn
     2    10     6     4     2
Direct configuration=    12
   0.51639738  0.96181908  0.96846836
   0.97281527  0.46228316  0.02029599
   0.37650215  0.00773855  0.21091047
   0.53914125  0.18847851  0.01656554
   0.64446793  0.11305204  0.81919636
   0.38254530  0.82315588  0.12773559
   0.55604100  0.87163729  0.87012444
   0.96956591  0.68998295  0.97343683
   0.13841735  0.49951307  0.81046982
   0.11298999  0.31536754  0.88829244
   0.84003593  0.62077362  0.14464854
   0.91780643  0.37434053  0.10699655
   0.27972292  0.21954851  0.49308734
   0.72379347  0.77685421  0.49826400
   0.77635437  0.27705626  0.50033009
   0.21975177  0.71817649  0.50850186
   0.00096296  0.00474634 -0.00214588
   0.49933948  0.50398715  0.00227055
   0.57191772  0.09587409  0.93699537
   0.41731921  0.93015390  0.10888112
   0.08392896  0.42449335  0.90205110
   0.92321968  0.59961339  0.04342693
  -0.00110331 -0.00027487  0.49941511
   0.50122488  0.50008659  0.50013308
tetra-FASnI3                            
           1
     8.955124   -0.003386   -0.122411
    -0.003359    8.889567   -0.008924
    -0.086439   -0.006301    6.377297
   C    H    I    N    Sn
     2    10     6     4     2
Direct configuration=    13
   0.51627031  0.96187543  0.96866049
   0.97297903  0.46235885  0.02019383
   0.37729227  0.00833815  0.20978991
   0.53921005  0.18923152  0.01674574
   0.64387139  0.11260383  0.82001891
   0.38310730  0.82292898  0.12670351
   0.55536483  0.87110142  0.87094578
   0.96948777  0.69064095  0.97338720
   0.13755633  0.50003299  0.81139252
   0.11247547  0.31504929  0.88903105
   0.84049071  0.62043389  0.14409801
   0.91855334  0.37387688  0.10632668
   0.28012127  0.21895761  0.49156500
   0.72415180  0.77666473  0.49791465
   0.77600285  0.27684462  0.50039213
   0.21924681  0.71732021  0.51035283
   0.00119817  0.00588781 -0.00274479
   0.49918333  0.50495931  0.00290629
   0.57148176  0.09565617  0.93745269
   0.41767561  0.93005843  0.10849938
   0.08367402  0.42442752  0.90217289
   0.92361883  0.59949618  0.04311792
  -0.00125023 -0.00035276  0.49931962
   0.50139496  0.50006565  0.50010936
tetra-FASnI3                            
           1
     8.955065   -0.003150   -0.127409
    -0.003127    8.888754   -0.009413
    -0.090001   -0.006655    6.377068
   C    H    I    N    Sn
     2    10     6     4     2
Direct configuration=    14
   0.51624141  0.96191198  0.96871035
   0.97304047  0.46239595  0.02013849
   0.37753183  0.00839329  0.20939516
   0.53922924  0.18924821  0.01672584
   0.64371400  0.11247705  0.82023800
   0.38323034  0.82278182  0.12644983
   0.55525476  0.87089321  0.87102621
   0.96946699  0.69070874  0.97339419
   0.13733095  0.50011140  0.81164431
   0.11235597  0.31491074  0.88921363
   0.84063021  0.62033155  0.14392908
   0.91867439  0.37370892  0.10625891
   0.28021931  0.21882048  0.49117759
   0.72424440  0.77661246  0.49783507
   0.77590708  0.27677086  0.50040355
   0.21912559  0.71712651  0.51081586
   0.00125968  0.00618326 -0.00293290
   0.49914405  0.50521308  0.00310625
   0.57146739  0.09588312  0.93750816
   0.41757800  0.93016771  0.10875066
   0.08371821  0.42451869  0.90205601
   0.92364545  0.59961653  0.04311276
  -0.00126314 -0.00037667  0.49931258
   0.50141142  0.50004876  0.50008199
tetra-FASnI3                            
           1
     8.955021   -0.002972   -0.131162
    -0.002953    8.888143   -0.009780
    -0.092676   -0.006921    6.376896
   C    H    I    N    Sn
     2    10     6     4     2
Direct configuration=    15
   0.51621972  0.96193943  0.96874779
   0.97308660  0.46242381  0.02009697
   0.37771162  0.00843469  0.20909883
   0.53924364  0.18926074  0.01671090
   0.64359586  0.11238185  0.82040244
   0.38332267  0.82267129  0.12625938
   0.55517212  0.87073684  0.87108653
   0.96945139  0.69075965  0.97339943
   0.13716176  0.50017030  0.81183328
   0.11226628  0.31480670  0.88935067
   0.84073493  0.62025468  0.14380228
   0.91876529  0.37358276  0.10620808
   0.28029282  0.21871748  0.49088669
   0.72431393  0.77657320  0.49777536
   0.77583517  0.27671547  0.50041207
   0.21903469  0.71698105  0.51116354
   0.00130581  0.00640515 -0.00307413
   0.49911460  0.50540369  0.00325642
   0.57145660  0.09605357  0.93754982
   0.41750477  0.93024980  0.10893933
   0.08375136  0.42458717  0.90196826
   0.92366543  0.59970692  0.04310891
  -0.00127284 -0.00039463  0.49930728
   0.50142377  0.50003607  0.50006144
tetra-FASnI3                            
           1
     8.954545   -0.002864   -0.135502
    -0.002846    8.884137   -0.010026
    -0.095783   -0.007098    6.375350
   C    H    I    N    Sn
     2    10     6     4     2
Direct configuration=    16
   0.51614417  0.96205159  0.96890193
   0.97314310  0.46246757  0.02003669
   0.37778874  0.00856285  0.20900971
   0.53922770  0.18922889  0.01672059
   0.64355856  0.11232700  0.82044950
   0.38339406  0.82258905  0.12612430
   0.55512929  0.87060044  0.87109023
   0.96944056  0.69074034  0.97341242
   0.13709868  0.50027770  0.81186546
   0.11218720  0.31477114  0.88945628
   0.84078149  0.62020200  0.14374207
   0.91882135  0.37348667  0.10619977
   0.28036016  0.21863777  0.49061092
   0.72438137  0.77653218  0.49773190
   0.77576083  0.27664241  0.50041149
   0.21895384  0.71686968  0.51148850
   0.00135171  0.00662441 -0.00325102
   0.49908612  0.50559668  0.00344394
   0.57143001  0.09613109  0.93758321
   0.41752510  0.93019323  0.10890705
   0.08373971  0.42453942  0.90198250
   0.92370350  0.59979185  0.04309442
  -0.00125529 -0.00041660  0.49932323
   0.50140606  0.50001028  0.50001651
tetra-FASnI3                            
           1
     8.953569   -0.002642   -0.144403
    -0.002627    8.875920   -0.010531
    -0.102158   -0.007462    6.372181
   C    H    I    N    Sn
     2    10     6     4     2
Direct configuration=    17
   0.51598928  0.96228178  0.96921812
   0.97325896  0.46255739  0.01991307
   0.37794686  0.00882585  0.20882697
   0.53919500  0.18916353  0.01674044
   0.64348209  0.11221445  0.82054598
   0.38354040  0.82242028  0.12584723
   0.55504143  0.87032053  0.87109774
   0.96941835  0.69070072  0.97343906
   0.13696928  0.50049812  0.81193140
   0.11202503  0.31469816  0.88967286
   0.84087695  0.62009389  0.14361860
   0.91893635  0.37328948  0.10618279
   0.28049810  0.21847417  0.49004516
   0.72451971  0.77644799  0.49764280
   0.77560833  0.27649249  0.50041020
   0.21878822  0.71664115  0.51215515
   0.00144573  0.00707437 -0.00361388
   0.49902782  0.50599276  0.00382868
   0.57137548  0.09629019  0.93765169
   0.41756680  0.93007713  0.10884084
   0.08371583  0.42444142  0.90201171
   0.92378160  0.59996615  0.04306475
  -0.00121929 -0.00046168  0.49935596
   0.50136969  0.49995735  0.49992428
tetra-FASnI3                            
           1
     8.953321   -0.002552   -0.148318
    -0.002538    8.871888   -0.010746
    -0.104968   -0.007617    6.370551
   C    H    I    N    Sn
     2    10     6     4     2
Direct configuration=    18
   0.51598495  0.96224522  0.96920272
   0.97327149  0.46253374  0.01991948
   0.37797466  0.00892523  0.20880890
   0.53916006  0.18919751  0.01680021
   0.64347644  0.11218877  0.82055010
   0.38358521  0.82233675  0.12575801
   0.55498705  0.87029896  0.87116688
   0.96943382  0.69072910  0.97341240
   0.13694226  0.50056928  0.81192745
   0.11197831  0.31464306  0.88974129
   0.84088999  0.62007063  0.14359638
   0.91899354  0.37326078  0.10615380
   0.28055300  0.21841630  0.48981801
   0.72457615  0.77641366  0.49761412
   0.77554413  0.27642510  0.50040463
   0.21872365  0.71655999  0.51242077
   0.00148457  0.00725928 -0.00377954
   0.49900375  0.50615816  0.00400418
   0.57135871  0.09628625  0.93765232
   0.41758224  0.93006926  0.10882316
   0.08369966  0.42445839  0.90202549
   0.92380548  0.59996480  0.04307625
  -0.00119547 -0.00048287  0.49937989
   0.50134435  0.49993031  0.49987472
tetra-FASnI3                            
           1
     8.952576   -0.002280   -0.160064
    -0.002270    8.859791   -0.011392
    -0.113398   -0.008082    6.365659
   C    H    I    N    Sn
     2    10     6     4     2
Direct configuration=    19
   0.51597196  0.96213549  0.96915650
   0.97330909  0.46246276  0.01993873
   0.37805804  0.00922351  0.20875473
   0.53905530  0.18929951  0.01697951
   0.64345950  0.11211169  0.82056246
   0.38371955  0.82208604  0.12549035
   0.55482399  0.87023424  0.87137425
   0.96948022  0.69081425  0.97333246
   0.13686117  0.50078288  0.81191554
   0.11183819  0.31447767  0.88994654
   0.84092910  0.62000080  0.14352972
   0.91916510  0.37317461  0.10606693
   0.28071748  0.21824261  0.48913646
   0.72474546  0.77631064  0.49752815
   0.77535152  0.27622286  0.50038778
   0.21853020  0.71631643  0.51321769
   0.00160091  0.00781427 -0.00427656
   0.49893170  0.50665458  0.00453079
   0.57130840  0.09627442  0.93765419
   0.41762856  0.93004565  0.10877012
   0.08365117  0.42450933  0.90206679
   0.92387712  0.59996074  0.04311082
  -0.00112398 -0.00054648  0.49945172
   0.50126827  0.49984916  0.49972594
tetra-FASnI3                            
           1
     8.951085   -0.001737   -0.183557
    -0.001734    8.835597   -0.012682
    -0.130258   -0.009012    6.355877
   C    H    I    N    Sn
     2    10     6     4     2
Direct configuration=    20
   0.51594590  0.96191573  0.96906393
   0.97338432  0.46232060  0.01997740
   0.37822469  0.00982087  0.20864668
   0.53884608  0.18950379  0.01733802
   0.64342565  0.11195733  0.82058712
   0.38398776  0.82158390  0.12495507
   0.55449822  0.87010465  0.87178869
   0.96957288  0.69098478  0.97317262
   0.13669895  0.50121067  0.81189144
   0.11155833  0.31414648  0.89035681
   0.84100720  0.61986094  0.14339642
   0.91950809  0.37300202  0.10589365
   0.28104519  0.21789467  0.48777287
   0.72508395  0.77610429  0.49735667
   0.77496623  0.27581782  0.50035330
   0.21814478  0.71582874  0.51481203
   0.00183265  0.00892569 -0.00527084
   0.49878855  0.50764884  0.00558469
   0.57120777  0.09625073  0.93765776
   0.41772110  0.92999835  0.10866412
   0.08355426  0.42461136  0.90214929
   0.92402047  0.59995263  0.04318026
  -0.00098086 -0.00067385  0.49959576
   0.50111582  0.49968662  0.49942784
tetra-FASnI3                            
           1
     8.951751   -0.002131   -0.190509
    -0.002118    8.830103   -0.012829
    -0.135276   -0.009113    6.352347
   C    H    I    N    Sn
     2    10     6     4     2
Direct configuration=    21
   0.51582846  0.96166813  0.96913262
   0.97350024  0.46209922  0.01994773
   0.37827443  0.00978885  0.20852631
   0.53880941  0.18962530  0.01742593
   0.64335923  0.11197269  0.82070915
   0.38403447  0.82147308  0.12487588
   0.55445233  0.86996950  0.87179560
   0.96959457  0.69111569  0.97311105
   0.13660645  0.50119319  0.81196007
   0.11153634  0.31403742  0.89040976
   0.84105574  0.61989190  0.14331531
   0.91959496  0.37289967  0.10588039
   0.28114867  0.21781431  0.48734892
   0.72520229  0.77604691  0.49733436
   0.77482664  0.27568014  0.50031698
   0.21802954  0.71570774  0.51530175
   0.00191248  0.00928158 -0.00566385
   0.49873765  0.50797497  0.00599854
   0.57130123  0.09635350  0.93751284
   0.41773344  0.93016600  0.10869770
   0.08359931  0.42471472  0.90209035
   0.92389430  0.60010230  0.04335313
  -0.00092088 -0.00073383  0.49969129
   0.50104669  0.49961469  0.49927979
tetra-FASnI3                            
           1
     8.951741   -0.002126   -0.190413
    -0.002113    8.830180   -0.012827
    -0.135206   -0.009112    6.352396
   C    H    I    N    Sn
     2    10     6     4     2
Direct configuration=    22
   0.51583009  0.96167156  0.96913167
   0.97349864  0.46210229  0.01994814
   0.37827374  0.00978929  0.20852798
   0.53880992  0.18962361  0.01742471
   0.64336015  0.11197248  0.82070746
   0.38403382  0.82147461  0.12487697
   0.55445297  0.86997138  0.87179551
   0.96959427  0.69111387  0.97311190
   0.13660773  0.50119343  0.81195912
   0.11153665  0.31403893  0.89040902
   0.84105507  0.61989147  0.14331643
   0.91959375  0.37290108  0.10588057
   0.28114724  0.21781542  0.48735479
   0.72520066  0.77604771  0.49733466
   0.77482857  0.27568205  0.50031749
   0.21803113  0.71570941  0.51529496
   0.00191137  0.00927665 -0.00565840
   0.49873835  0.50797045  0.00599281
   0.57129993  0.09635207  0.93751484
   0.41773326  0.93016367  0.10869723
   0.08359868  0.42471329  0.90209116
   0.92389605  0.60010023  0.04335074
  -0.00092171 -0.00073300  0.49968997
   0.50104765  0.49961569  0.49928184
tetra-FASnI3                            
           1
     8.953564   -0.002841   -0.195264
    -0.002812    8.826714   -0.012729
    -0.138723   -0.009031    6.350146
   C    H    I    N    Sn
     2    10     6     4     2
Direct configuration=    23
   0.51580243  0.96166178  0.96915718
   0.97355563  0.46211136  0.01993547
   0.37827310  0.00967193  0.20846504
   0.53883905  0.18971615  0.01740566
   0.64333184  0.11205438  0.82078232
   0.38405001  0.82153445  0.12490614
   0.55446116  0.86975381  0.87169084
   0.96956416  0.69123794  0.97311017
   0.13655119  0.50112874  0.81199318
   0.11157728  0.31401935  0.89037118
   0.84103017  0.61999986  0.14332407
   0.91963898  0.37274319  0.10591700
   0.28121897  0.21778871  0.48706408
   0.72529436  0.77601771  0.49735243
   0.77471397  0.27557996  0.50026361
   0.21795701  0.71565634  0.51562533
   0.00197716  0.00953208 -0.00601236
   0.49869330  0.50821144  0.00636289
   0.57128241  0.09633247  0.93752321
   0.41769955  0.93017634  0.10871560
   0.08365367  0.42466673  0.90207671
   0.92387958  0.60011376  0.04339013
  -0.00087115 -0.00079503  0.49980733
   0.50098419  0.49954420  0.49912437
tetra-FASnI3                            
           1
     8.956565   -0.004020   -0.203251
    -0.003962    8.821008   -0.012567
    -0.144513   -0.008898    6.346441
   C    H    I    N    Sn
     2    10     6     4     2
Direct configuration=    24
   0.51575691  0.96164566  0.96919916
   0.97364946  0.46212631  0.01991467
   0.37827198  0.00947859  0.20836137
   0.53888700  0.18986860  0.01737432
   0.64328529  0.11218930  0.82090561
   0.38407668  0.82163304  0.12495421
   0.55447455  0.86939540  0.87151845
   0.96951460  0.69144233  0.97310729
   0.13645810  0.50102216  0.81204921
   0.11164415  0.31398710  0.89030888
   0.84098920  0.62017843  0.14333663
   0.91971344  0.37248310  0.10597705
   0.28133686  0.21774472  0.48658528
   0.72544863  0.77596832  0.49738181
   0.77452525  0.27541177  0.50017473
   0.21783519  0.71556889  0.51616945
   0.00208528  0.00995287 -0.00659535
   0.49861941  0.50860841  0.00697245
   0.57125356  0.09630017  0.93753696
   0.41764405  0.93019721  0.10874582
   0.08374419  0.42459003  0.90205297
   0.92385249  0.60013606  0.04345499
  -0.00078785 -0.00089723  0.50000071
   0.50087961  0.49942645  0.49886490
tetra-FASnI3                            
           1
     8.958337   -0.004523   -0.206851
    -0.004456    8.818513   -0.012585
    -0.147138   -0.008905    6.344404
   C    H    I    N    Sn
     2    10     6     4     2
Direct configuration=    25
   0.51576412  0.96156634  0.96914069
   0.97368464  0.46210576  0.01993588
   0.37821955  0.00942204  0.20841240
   0.53895168  0.18991635  0.01728961
   0.64326286  0.11228322  0.82097190
   0.38405854  0.82166890  0.12502890
   0.55444695  0.86924623  0.87149929
   0.96943337  0.69151899  0.97317092
   0.13644925  0.50099298  0.81200921
   0.11171555  0.31394025  0.89024245
   0.84097723  0.62029208  0.14333540
   0.91979503  0.37236466  0.10596295
   0.28139945  0.21774152  0.48633256
   0.72554215  0.77594887  0.49741841
   0.77440867  0.27531967  0.50010810
   0.21777405  0.71554215  0.51645515
   0.00214968  0.01018149 -0.00696510
   0.49857367  0.50882806  0.00735665
   0.57120050  0.09633439  0.93762800
   0.41769280  0.93014554  0.10858632
   0.08368002  0.42454686  0.90219751
   0.92390262  0.60017104  0.04340570
  -0.00074117 -0.00096687  0.50014215
   0.50081679  0.49934713  0.49868655
tetra-FASnI3                            
           1
     8.961389   -0.005389   -0.213050
    -0.005305    8.814217   -0.012616
    -0.151657   -0.008916    6.340898
   C    H    I    N    Sn
     2    10     6     4     2
Direct configuration=    26
   0.51577650  0.96142973  0.96903998
   0.97374522  0.46207038  0.01997245
   0.37812931  0.00932464  0.20850022
   0.53906300  0.18999860  0.01714379
   0.64322430  0.11244498  0.82108605
   0.38402736  0.82173065  0.12515751
   0.55439942  0.86898933  0.87146627
   0.96929357  0.69165101  0.97328043
   0.13643399  0.50094274  0.81194031
   0.11183843  0.31385957  0.89012809
   0.84095665  0.62048782  0.14333326
   0.91993547  0.37216068  0.10593874
   0.28150706  0.21773601  0.48589736
   0.72570315  0.77591537  0.49748153
   0.77420794  0.27516106  0.49999324
   0.21766896  0.71549607  0.51694714