  48  48   0   0
  0.2018876E+02  0.8837900E-09  0.8837900E-09  0.1240660E-08  0.5000000E-15
   1.0000000000000000E-004
  CAR 
 ortho-FASnI3                            
      9.60069633    -21.74797196  301      2.60602472      1.00000000
    -21.748  0.0000E+00  0.0000E+00
    -21.643  0.0000E+00  0.0000E+00
    -21.539  0.0000E+00  0.0000E+00
    -21.434  0.0000E+00  0.0000E+00
    -21.330  0.0000E+00  0.0000E+00
    -21.225  0.0000E+00  0.0000E+00
    -21.121  0.0000E+00  0.0000E+00
    -21.017  0.0000E+00  0.0000E+00
    -20.912  0.0000E+00  0.0000E+00
    -20.808  0.0000E+00  0.0000E+00
    -20.703  0.0000E+00  0.0000E+00
    -20.599  0.6221E-16  0.6501E-17
    -20.494  0.1255E-07  0.1312E-08
    -20.390  0.5721E-03  0.5978E-04
    -20.285  0.1609E-01  0.1741E-02
    -20.181  0.2030E-01  0.3862E-02
    -20.076  0.2004E-01  0.5957E-02
    -19.972  0.5610E-02  0.6543E-02
    -19.867  0.1376E-01  0.7981E-02
    -19.763  0.1809E-03  0.8000E-02
    -19.658  0.1090E-08  0.8000E-02
    -19.554  0.0000E+00  0.8000E-02
    -19.449  0.0000E+00  0.8000E-02
    -19.345  0.0000E+00  0.8000E-02
    -19.240  0.0000E+00  0.8000E-02
    -19.136  0.0000E+00  0.8000E-02
    -19.031  0.0000E+00  0.8000E-02
    -18.927  0.0000E+00  0.8000E-02
    -18.822  0.0000E+00  0.8000E-02
    -18.718  0.0000E+00  0.8000E-02
    -18.613  0.0000E+00  0.8000E-02
    -18.509  0.0000E+00  0.8000E-02
    -18.404  0.0000E+00  0.8000E-02
    -18.300  0.1062E-17  0.8000E-02
    -18.195  0.7513E-09  0.8000E-02
    -18.091  0.1506E-03  0.8016E-02
    -17.986  0.1340E-01  0.9416E-02
    -17.882  0.1639E-01  0.1113E-01
    -17.777  0.1992E-01  0.1321E-01
    -17.673  0.7590E-02  0.1400E-01
    -17.568  0.1069E-01  0.1512E-01
    -17.464  0.8395E-02  0.1600E-01
    -17.359  0.1805E-04  0.1600E-01
    -17.255  0.1278E-10  0.1600E-01
    -17.150  0.0000E+00  0.1600E-01
    -17.046  0.0000E+00  0.1600E-01
    -16.941  0.0000E+00  0.1600E-01
    -16.837  0.0000E+00  0.1600E-01
    -16.732  0.0000E+00  0.1600E-01
    -16.628  0.0000E+00  0.1600E-01
    -16.523  0.0000E+00  0.1600E-01
    -16.419  0.0000E+00  0.1600E-01
    -16.314  0.0000E+00  0.1600E-01
    -16.210  0.0000E+00  0.1600E-01
    -16.105  0.0000E+00  0.1600E-01
    -16.001  0.0000E+00  0.1600E-01
    -15.896  0.0000E+00  0.1600E-01
    -15.792  0.0000E+00  0.1600E-01
    -15.687  0.0000E+00  0.1600E-01
    -15.583  0.0000E+00  0.1600E-01
    -15.478  0.0000E+00  0.1600E-01
    -15.374  0.0000E+00  0.1600E-01
    -15.269  0.0000E+00  0.1600E-01
    -15.165  0.0000E+00  0.1600E-01
    -15.060  0.0000E+00  0.1600E-01
    -14.956  0.0000E+00  0.1600E-01
    -14.851  0.0000E+00  0.1600E-01
    -14.747  0.0000E+00  0.1600E-01
    -14.642  0.0000E+00  0.1600E-01
    -14.538  0.0000E+00  0.1600E-01
    -14.433  0.0000E+00  0.1600E-01
    -14.329  0.0000E+00  0.1600E-01
    -14.224  0.0000E+00  0.1600E-01
    -14.120  0.0000E+00  0.1600E-01
    -14.015  0.0000E+00  0.1600E-01
    -13.911  0.0000E+00  0.1600E-01
    -13.806  0.0000E+00  0.1600E-01
    -13.702  0.0000E+00  0.1600E-01
    -13.597  0.0000E+00  0.1600E-01
    -13.493  0.0000E+00  0.1600E-01
    -13.388  0.0000E+00  0.1600E-01
    -13.284  0.0000E+00  0.1600E-01
    -13.179  0.0000E+00  0.1600E-01
    -13.075  0.0000E+00  0.1600E-01
    -12.970  0.0000E+00  0.1600E-01
    -12.866  0.0000E+00  0.1600E-01
    -12.761  0.0000E+00  0.1600E-01
    -12.657  0.0000E+00  0.1600E-01
    -12.552  0.0000E+00  0.1600E-01
    -12.448  0.0000E+00  0.1600E-01
    -12.343  0.0000E+00  0.1600E-01
    -12.239  0.0000E+00  0.1600E-01
    -12.134  0.0000E+00  0.1600E-01
    -12.030  0.0000E+00  0.1600E-01
    -11.925  0.0000E+00  0.1600E-01
    -11.821  0.1133E-16  0.1600E-01
    -11.716  0.2690E-08  0.1600E-01
    -11.612  0.2072E-03  0.1602E-01
    -11.507  0.1408E-01  0.1749E-01
    -11.403  0.2667E-01  0.2028E-01
    -11.298  0.1629E-01  0.2198E-01
    -11.194  0.1406E-01  0.2345E-01
    -11.089  0.2064E-01  0.2561E-01
    -10.985  0.1923E-01  0.2762E-01
    -10.880  0.2713E-01  0.3045E-01
    -10.776  0.2410E-01  0.3297E-01
    -10.671  0.3792E-01  0.3693E-01
    -10.567  0.4363E-01  0.4149E-01
    -10.462  0.3219E-01  0.4486E-01
    -10.358  0.1937E-01  0.4688E-01
    -10.253  0.1064E-01  0.4799E-01
    -10.149  0.8799E-04  0.4800E-01
    -10.044  0.8579E-09  0.4800E-01
     -9.940  0.2951E-17  0.4800E-01
     -9.835  0.0000E+00  0.4800E-01
     -9.731  0.0000E+00  0.4800E-01
     -9.626  0.5936E-11  0.4800E-01
     -9.522  0.1174E-04  0.4800E-01
     -9.417  0.7451E-02  0.4878E-01
     -9.313  0.1679E-01  0.5053E-01
     -9.209  0.2608E-01  0.5326E-01
     -9.104  0.7157E-02  0.5401E-01
     -9.000  0.1186E-01  0.5525E-01
     -8.895  0.7194E-02  0.5600E-01
     -8.791  0.7860E-04  0.5601E-01
     -8.686  0.1162E-01  0.5722E-01
     -8.582  0.2090E-01  0.5941E-01
     -8.477  0.1329E-01  0.6079E-01
     -8.373  0.1157E-01  0.6200E-01
     -8.268  0.1237E-01  0.6329E-01
     -8.164  0.6740E-02  0.6400E-01
     -8.059  0.8256E-05  0.6400E-01
     -7.955  0.3128E-11  0.6400E-01
     -7.850  0.0000E+00  0.6400E-01
     -7.746  0.0000E+00  0.6400E-01
     -7.641  0.0000E+00  0.6400E-01
     -7.537  0.0000E+00  0.6400E-01
     -7.432  0.0000E+00  0.6400E-01
     -7.328  0.0000E+00  0.6400E-01
     -7.223  0.0000E+00  0.6400E-01
     -7.119  0.3527E-11  0.6400E-01
     -7.014  0.8606E-05  0.6400E-01
     -6.910  0.6771E-02  0.6471E-01
     -6.805  0.1630E-01  0.6641E-01
     -6.701  0.2868E-01  0.6941E-01
     -6.596  0.5666E-02  0.7000E-01
     -6.492  0.4620E-02  0.7048E-01
     -6.387  0.1423E-01  0.7197E-01
     -6.283  0.2854E-03  0.7200E-01
     -6.178  0.3702E-03  0.7204E-01
     -6.074  0.6872E-03  0.7211E-01
     -5.969  0.1947E-03  0.7213E-01
     -5.865  0.4459E-02  0.7260E-01
     -5.760  0.2075E-02  0.7281E-01
     -5.656  0.5012E-02  0.7334E-01
     -5.551  0.4145E-02  0.7377E-01
     -5.447  0.6250E-02  0.7442E-01
     -5.342  0.1777E-01  0.7628E-01
     -5.238  0.2841E-01  0.7925E-01
     -5.133  0.2197E-01  0.8154E-01
     -5.029  0.2081E-01  0.8372E-01
     -4.924  0.2335E-01  0.8616E-01
     -4.820  0.9229E-02  0.8712E-01
     -4.715  0.1621E-01  0.8882E-01
     -4.611  0.2177E-01  0.9109E-01
     -4.506  0.2151E-01  0.9334E-01
     -4.402  0.1705E-01  0.9512E-01
     -4.297  0.7336E-02  0.9589E-01
     -4.193  0.1300E-04  0.9589E-01
     -4.088  0.1948E-10  0.9589E-01
     -3.984  0.4103E-05  0.9589E-01
     -3.879  0.6494E-03  0.9596E-01
     -3.775  0.4092E-03  0.9600E-01
     -3.670  0.6201E-06  0.9600E-01
     -3.566  0.2954E-12  0.9600E-01
     -3.461  0.0000E+00  0.9600E-01
     -3.357  0.0000E+00  0.9600E-01
     -3.252  0.0000E+00  0.9600E-01
     -3.148  0.0000E+00  0.9600E-01
     -3.043  0.0000E+00  0.9600E-01
     -2.939  0.0000E+00  0.9600E-01
     -2.834  0.0000E+00  0.9600E-01
     -2.730  0.0000E+00  0.9600E-01
     -2.625  0.6974E-14  0.9600E-01
     -2.521  0.7983E-07  0.9600E-01
     -2.416  0.4586E-03  0.9605E-01
     -2.312  0.1017E-01  0.9711E-01
     -2.207  0.1532E-01  0.9871E-01
     -2.103  0.7788E-02  0.9953E-01
     -1.998  0.7676E-02  0.1003E+00
     -1.894  0.1195E-01  0.1016E+00
     -1.789  0.1547E-01  0.1032E+00
     -1.685  0.1396E-01  0.1047E+00
     -1.580  0.1047E-01  0.1057E+00
     -1.476  0.1541E-01  0.1074E+00
     -1.371  0.2675E-01  0.1102E+00
     -1.267  0.3117E-01  0.1134E+00
     -1.162  0.2257E-01  0.1158E+00
     -1.058  0.1926E-01  0.1178E+00
     -0.953  0.1997E-01  0.1199E+00
     -0.849  0.2597E-01  0.1226E+00
     -0.744  0.2643E-01  0.1253E+00
     -0.640  0.2017E-01  0.1274E+00
     -0.535  0.2794E-01  0.1304E+00
     -0.431  0.2191E-01  0.1327E+00
     -0.326  0.2691E-01  0.1355E+00
     -0.222  0.2962E-01  0.1386E+00
     -0.117  0.3600E-01  0.1423E+00
     -0.013  0.4117E-01  0.1466E+00
      0.092  0.4588E-01  0.1514E+00
      0.196  0.4589E-01  0.1562E+00
      0.301  0.4325E-01  0.1607E+00
      0.405  0.2977E-01  0.1638E+00
      0.510  0.3346E-01  0.1673E+00
      0.614  0.2292E-01  0.1697E+00
      0.719  0.1216E-01  0.1710E+00
      0.823  0.1128E-01  0.1722E+00
      0.928  0.8639E-02  0.1731E+00
      1.032  0.4729E-02  0.1736E+00
      1.137  0.5708E-02  0.1742E+00
      1.241  0.1066E-02  0.1743E+00
      1.346  0.3409E-02  0.1747E+00
      1.450  0.2764E-03  0.1747E+00
      1.555  0.4677E-02  0.1752E+00
      1.659  0.2814E-02  0.1755E+00
      1.764  0.3301E-02  0.1758E+00
      1.868  0.7731E-03  0.1759E+00
      1.973  0.2934E-05  0.1759E+00
      2.077  0.5273E-11  0.1759E+00
      2.182  0.5569E-08  0.1759E+00
      2.286  0.7795E-04  0.1759E+00
      2.391  0.9149E-03  0.1760E+00
      2.495  0.7048E-04  0.1760E+00
      2.599  0.4366E-08  0.1760E+00
      2.704  0.6457E-16  0.1760E+00
      2.808  0.2792E-14  0.1760E+00
      2.913  0.4416E-07  0.1760E+00
      3.017  0.2164E-03  0.1760E+00
      3.122  0.2034E-02  0.1762E+00
      3.226  0.1707E-02  0.1764E+00
      3.331  0.8221E-02  0.1773E+00
      3.435  0.7896E-02  0.1781E+00
      3.540  0.8207E-02  0.1790E+00
      3.644  0.1016E-01  0.1800E+00
      3.749  0.4793E-02  0.1805E+00
      3.853  0.1419E-02  0.1807E+00
      3.958  0.7885E-03  0.1807E+00
      4.062  0.4073E-02  0.1812E+00
      4.167  0.3708E-02  0.1816E+00
      4.271  0.5102E-02  0.1821E+00
      4.376  0.1637E-01  0.1838E+00
      4.480  0.7849E-02  0.1846E+00
      4.585  0.7083E-02  0.1854E+00
      4.689  0.6058E-02  0.1860E+00
      4.794  0.1214E-01  0.1873E+00
      4.898  0.2794E-01  0.1902E+00
      5.003  0.1728E-01  0.1920E+00
      5.107  0.5085E-02  0.1925E+00
      5.212  0.1371E-01  0.1940E+00
      5.316  0.9729E-02  0.1950E+00
      5.421  0.1118E-01  0.1961E+00
      5.525  0.1615E-01  0.1978E+00
      5.630  0.1592E-01  0.1995E+00
      5.734  0.6661E-02  0.2002E+00
      5.839  0.5653E-02  0.2008E+00
      5.943  0.4387E-02  0.2012E+00
      6.048  0.1576E-01  0.2029E+00
      6.152  0.8196E-02  0.2037E+00
      6.257  0.8286E-02  0.2046E+00
      6.361  0.1047E-01  0.2057E+00
      6.466  0.7818E-02  0.2065E+00
      6.570  0.6063E-02  0.2072E+00
      6.675  0.1225E-01  0.2084E+00
      6.779  0.1402E-01  0.2099E+00
      6.884  0.2155E-01  0.2121E+00
      6.988  0.2250E-01  0.2145E+00
      7.093  0.2278E-01  0.2169E+00
      7.197  0.2378E-01  0.2194E+00
      7.302  0.2069E-01  0.2215E+00
      7.406  0.1996E-01  0.2236E+00
      7.511  0.2214E-01  0.2259E+00
      7.615  0.2085E-01  0.2281E+00
      7.720  0.2417E-01  0.2306E+00
      7.824  0.2758E-01  0.2335E+00
      7.929  0.2514E-01  0.2361E+00
      8.033  0.2282E-01  0.2385E+00
      8.138  0.1140E-01  0.2397E+00
      8.242  0.2683E-02  0.2400E+00
      8.347  0.4233E-04  0.2400E+00
      8.451  0.7351E-09  0.2400E+00
      8.556  0.3542E-17  0.2400E+00
      8.660  0.0000E+00  0.2400E+00
      8.765  0.0000E+00  0.2400E+00
      8.869  0.0000E+00  0.2400E+00
      8.974  0.0000E+00  0.2400E+00
      9.078  0.0000E+00  0.2400E+00
      9.183  0.0000E+00  0.2400E+00
      9.287  0.0000E+00  0.2400E+00
      9.392  0.0000E+00  0.2400E+00
      9.496  0.0000E+00  0.2400E+00
      9.601  0.0000E+00  0.2400E+00
