       N       E                     dE             d eps       ncg     rms          ort
DAV:   1     0.799716515683E+03    0.79972E+03   -0.92004E+04  1200   0.163E+03
DAV:   2    -0.477438913273E+03   -0.12772E+04   -0.12260E+04  1200   0.256E+02
DAV:   3    -0.639821448979E+03   -0.16238E+03   -0.16088E+03  1200   0.102E+02
DAV:   4    -0.644497823271E+03   -0.46764E+01   -0.46411E+01  1200   0.193E+01
DAV:   5    -0.644641885601E+03   -0.14406E+00   -0.14394E+00  1200   0.315E+00
SDA:   6    -0.579869012867E+03    0.64773E+02   -0.14394E+00  1200   0.716E+02 0.000E+00
CGA:   7    -0.591214632874E+03   -0.11346E+02   -0.11590E+02  1200   0.460E+01 0.273E+01
CGA:   8    -0.592714879441E+03   -0.15002E+01   -0.14970E+01  1200   0.151E+01 0.155E-01
CGA:   9    -0.593173180970E+03   -0.45830E+00   -0.45796E+00  1200   0.455E+00 0.346E-02
CGA:  10    -0.593312094120E+03   -0.13891E+00   -0.13887E+00  1200   0.123E+00 0.247E-03
CGA:  11    -0.593356109175E+03   -0.44015E-01   -0.44047E-01  1200   0.352E-01-0.258E-03
CGA:  12    -0.593367282855E+03   -0.11174E-01   -0.11176E-01  1200   0.734E-02-0.136E-04
CGA:  13    -0.593369961768E+03   -0.26789E-02   -0.26835E-02  1200   0.182E-02-0.313E-04
CGA:  14    -0.593370618255E+03   -0.65649E-03   -0.65630E-03  1200   0.399E-03 0.165E-05
CGA:  15    -0.593370770046E+03   -0.15179E-03   -0.15033E-03  1200   0.942E-04 0.106E-04
CGA:  16    -0.593370809900E+03   -0.39854E-04   -0.39690E-04  1200   0.245E-04 0.978E-06
CGA:  17    -0.593370820383E+03   -0.10483E-04   -0.10528E-04  1200   0.593E-05-0.267E-06
CGA:  18    -0.593370822670E+03   -0.22867E-05   -0.22047E-05  1200   0.139E-05 0.724E-06
   1 F= -.59337082E+03 E0= -.59337082E+03  d E =-.593371E+03
       N       E                     dE             d eps       ncg     rms          ort
SDA:   1    -0.593359700872E+03    0.11120E-01    0.00000E+00  1200   0.229E-01 0.000E+00
CGA:   2    -0.593367635730E+03   -0.79349E-02   -0.79360E-02  1200   0.795E-02-0.157E-04
CGA:   3    -0.593369684423E+03   -0.20487E-02   -0.20487E-02  1200   0.118E-02 0.204E-05
CGA:   4    -0.593369985100E+03   -0.30068E-03   -0.30069E-03  1200   0.213E-03 0.732E-06
CGA:   5    -0.593370046734E+03   -0.61634E-04   -0.61642E-04  1200   0.507E-04-0.590E-06
CGA:   6    -0.593370063733E+03   -0.17000E-04   -0.17007E-04  1200   0.156E-04-0.124E-06
CGA:   7    -0.593370069626E+03   -0.58926E-05   -0.58688E-05  1200   0.479E-05 0.247E-06
CGA:   8    -0.593370071381E+03   -0.17545E-05   -0.17423E-05  1200   0.118E-05 0.163E-06
   2 F= -.59337007E+03 E0= -.59337007E+03  d E =0.751289E-03
       N       E                     dE             d eps       ncg     rms          ort
SDA:   1    -0.593365568069E+03    0.45016E-02    0.00000E+00  1200   0.119E-01 0.000E+00
CGA:   2    -0.593369690358E+03   -0.41223E-02   -0.41217E-02  1200   0.412E-02 0.990E-05
CGA:   3    -0.593370755804E+03   -0.10654E-02   -0.10654E-02  1200   0.617E-03-0.142E-05
CGA:   4    -0.593370912613E+03   -0.15681E-03   -0.15679E-03  1200   0.112E-03-0.465E-06
CGA:   5    -0.593370944709E+03   -0.32096E-04   -0.32098E-04  1200   0.260E-04 0.438E-06
CGA:   6    -0.593370953469E+03   -0.87597E-05   -0.87537E-05  1200   0.800E-05 0.138E-06
CGA:   7    -0.593370956601E+03   -0.31318E-05   -0.31462E-05  1200   0.264E-05-0.143E-06
CGA:   8    -0.593370957568E+03   -0.96711E-06   -0.97581E-06  1200   0.692E-06-0.110E-06
   3 F= -.59337096E+03 E0= -.59337096E+03  d E =-.134898E-03
       N       E                     dE             d eps       ncg     rms          ort
SDA:   1    -0.593367949824E+03    0.30068E-02    0.00000E+00  1200   0.718E-02 0.000E+00
CGA:   2    -0.593370327232E+03   -0.23774E-02   -0.23778E-02  1200   0.239E-02-0.139E-04
CGA:   3    -0.593370941312E+03   -0.61408E-03   -0.61416E-03  1200   0.342E-03 0.181E-05
CGA:   4    -0.593371028809E+03   -0.87498E-04   -0.87533E-04  1200   0.643E-04 0.766E-06
CGA:   5    -0.593371046962E+03   -0.18152E-04   -0.18164E-04  1200   0.142E-04 0.657E-06
CGA:   6    -0.593371052007E+03   -0.50455E-05   -0.50723E-05  1200   0.465E-05-0.487E-06
CGA:   7    -0.593371053715E+03   -0.17079E-05   -0.17133E-05  1200   0.145E-05-0.676E-07
CGA:   8    -0.593371054181E+03   -0.46568E-06   -0.46278E-06  1200   0.318E-06 0.164E-06
   4 F= -.59337105E+03 E0= -.59337105E+03  d E =-.966131E-04
       N       E                     dE             d eps       ncg     rms          ort
SDA:   1    -0.593370748452E+03    0.30526E-03    0.00000E+00  1200   0.777E-03 0.000E+00
CGA:   2    -0.593371004027E+03   -0.25558E-03   -0.25548E-03  1200   0.256E-03 0.459E-05
CGA:   3    -0.593371070878E+03   -0.66851E-04   -0.66823E-04  1200   0.374E-04-0.560E-06
CGA:   4    -0.593371080438E+03   -0.95597E-05   -0.95491E-05  1200   0.715E-05-0.207E-06
CGA:   5    -0.593371082505E+03   -0.20674E-05   -0.20643E-05  1200   0.164E-05-0.219E-06
CGA:   6    -0.593371082983E+03   -0.47705E-06   -0.47780E-06  1200   0.404E-06 0.145E-06
CGA:   7    -0.593371083145E+03   -0.16253E-06   -0.15948E-06  1200   0.133E-06 0.476E-07
CGA:   8    -0.593371083210E+03   -0.64480E-07   -0.93668E-07  1200   0.152E-06-0.906E-07
   5 F= -.59337108E+03 E0= -.59337108E+03  d E =-.125642E-03
       N       E                     dE             d eps       ncg     rms          ort
SDA:   1    -0.593369956162E+03    0.11270E-02    0.00000E+00  1200   0.305E-02 0.000E+00
CGA:   2    -0.593370934132E+03   -0.97797E-03   -0.97797E-03  1200   0.944E-03-0.606E-07
CGA:   3    -0.593371181143E+03   -0.24701E-03   -0.24704E-03  1200   0.131E-03 0.648E-06
CGA:   4    -0.593371215968E+03   -0.34825E-04   -0.34829E-04  1200   0.251E-04 0.900E-07
CGA:   5    -0.593371222812E+03   -0.68446E-05   -0.68668E-05  1200   0.521E-05 0.581E-06
CGA:   6    -0.593371224650E+03   -0.18373E-05   -0.18359E-05  1200   0.153E-05 0.406E-07
CGA:   7    -0.593371225254E+03   -0.60493E-06   -0.60777E-06  1200   0.521E-06-0.322E-07
CGA:   8    -0.593371225423E+03   -0.16837E-06   -0.16785E-06  1200   0.118E-06 0.374E-07
   6 F= -.59337123E+03 E0= -.59337123E+03  d E =-.142213E-03
       N       E                     dE             d eps       ncg     rms          ort
SDA:   1    -0.593369039470E+03    0.21858E-02    0.00000E+00  1200   0.542E-02 0.000E+00
CGA:   2    -0.593370776864E+03   -0.17374E-02   -0.17374E-02  1200   0.168E-02-0.517E-07
CGA:   3    -0.593371215897E+03   -0.43903E-03   -0.43908E-03  1200   0.233E-03 0.866E-06
CGA:   4    -0.593371277731E+03   -0.61834E-04   -0.61840E-04  1200   0.445E-04 0.121E-06
CGA:   5    -0.593371289964E+03   -0.12233E-04   -0.12261E-04  1200   0.938E-05 0.777E-06
CGA:   6    -0.593371293255E+03   -0.32908E-05   -0.32889E-05  1200   0.274E-05 0.516E-07
CGA:   7    -0.593371294334E+03   -0.10793E-05   -0.10821E-05  1200   0.922E-06-0.385E-07
CGA:   8    -0.593371294642E+03   -0.30751E-06   -0.30617E-06  1200   0.213E-06 0.523E-07
   7 F= -.59337129E+03 E0= -.59337129E+03  d E =-.211432E-03
       N       E                     dE             d eps       ncg     rms          ort
SDA:   1    -0.593370353873E+03    0.94046E-03    0.00000E+00  1200   0.261E-02 0.000E+00
CGA:   2    -0.593371188262E+03   -0.83439E-03   -0.83438E-03  1200   0.771E-03 0.154E-05
CGA:   3    -0.593371389726E+03   -0.20146E-03   -0.20142E-03  1200   0.107E-03-0.804E-06
CGA:   4    -0.593371418056E+03   -0.28330E-04   -0.28332E-04  1200   0.201E-04 0.415E-07
CGA:   5    -0.593371423625E+03   -0.55692E-05   -0.55713E-05  1200   0.429E-05 0.473E-07
CGA:   6    -0.593371425065E+03   -0.14395E-05   -0.14387E-05  1200   0.115E-05 0.317E-07
CGA:   7    -0.593371425525E+03   -0.46060E-06   -0.46370E-06  1200   0.388E-06-0.335E-07
CGA:   8    -0.593371425661E+03   -0.13581E-06   -0.13614E-06  1200   0.949E-07-0.284E-08
   8 F= -.59337143E+03 E0= -.59337143E+03  d E =-.131019E-03
       N       E                     dE             d eps       ncg     rms          ort
SDA:   1    -0.593361965313E+03    0.94602E-02    0.00000E+00  1200   0.234E-01 0.000E+00
CGA:   2    -0.593369476527E+03   -0.75112E-02   -0.75112E-02  1200   0.695E-02 0.455E-05
CGA:   3    -0.593371288781E+03   -0.18123E-02   -0.18121E-02  1200   0.959E-03-0.231E-05
CGA:   4    -0.593371543711E+03   -0.25493E-03   -0.25494E-03  1200   0.181E-03 0.113E-06
CGA:   5    -0.593371593958E+03   -0.50247E-04   -0.50253E-04  1200   0.386E-04 0.152E-06
CGA:   6    -0.593371606897E+03   -0.12939E-04   -0.12936E-04  1200   0.103E-04 0.113E-06
CGA:   7    -0.593371610940E+03   -0.40433E-05   -0.40502E-05  1200   0.331E-05-0.856E-07
CGA:   8    -0.593371612139E+03   -0.11987E-05   -0.11990E-05  1200   0.830E-06-0.480E-08
   9 F= -.59337161E+03 E0= -.59337161E+03  d E =-.317497E-03
       N       E                     dE             d eps       ncg     rms          ort
SDA:   1    -0.593371388943E+03    0.22200E-03    0.00000E+00  1200   0.738E-03 0.000E+00
CGA:   2    -0.593371625025E+03   -0.23608E-03   -0.23608E-03  1200   0.218E-03 0.794E-06
CGA:   3    -0.593371681743E+03   -0.56718E-04   -0.56689E-04  1200   0.302E-04-0.470E-06
CGA:   4    -0.593371689794E+03   -0.80511E-05   -0.80503E-05  1200   0.557E-05-0.116E-07
CGA:   5    -0.593371691369E+03   -0.15751E-05   -0.15735E-05  1200   0.124E-05-0.429E-07
CGA:   6    -0.593371691781E+03   -0.41148E-06   -0.41123E-06  1200   0.333E-06 0.455E-08
CGA:   7    -0.593371691914E+03   -0.13303E-06   -0.13431E-06  1200   0.115E-06-0.132E-07
CGA:   8    -0.593371691952E+03   -0.37935E-07   -0.37820E-07  1200   0.263E-07 0.435E-08
  10 F= -.59337169E+03 E0= -.59337169E+03  d E =-.798126E-04
       N       E                     dE             d eps       ncg     rms          ort
SDA:   1    -0.593369173971E+03    0.25179E-02    0.00000E+00  1200   0.663E-02 0.000E+00
CGA:   2    -0.593371297872E+03   -0.21239E-02   -0.21239E-02  1200   0.197E-02 0.231E-05
CGA:   3    -0.593371806897E+03   -0.50902E-03   -0.50894E-03  1200   0.272E-03-0.137E-05
CGA:   4    -0.593371879389E+03   -0.72492E-04   -0.72491E-04  1200   0.512E-04-0.186E-07
CGA:   5    -0.593371893705E+03   -0.14317E-04   -0.14312E-04  1200   0.110E-04-0.124E-06
CGA:   6    -0.593371897355E+03   -0.36503E-05   -0.36501E-05  1200   0.292E-05 0.202E-07
CGA:   7    -0.593371898491E+03   -0.11356E-05   -0.11382E-05  1200   0.936E-06-0.308E-07
CGA:   8    -0.593371898824E+03   -0.33250E-06   -0.33212E-06  1200   0.230E-06 0.117E-07
  11 F= -.59337190E+03 E0= -.59337190E+03  d E =-.286684E-03
       N       E                     dE             d eps       ncg     rms          ort
SDA:   1    -0.593361268596E+03    0.10630E-01    0.00000E+00  1200   0.265E-01 0.000E+00
CGA:   2    -0.593369766292E+03   -0.84977E-02   -0.84977E-02  1200   0.787E-02 0.366E-05
CGA:   3    -0.593371801988E+03   -0.20357E-02   -0.20356E-02  1200   0.109E-02-0.255E-05
CGA:   4    -0.593372091930E+03   -0.28994E-03   -0.28994E-03  1200   0.205E-03-0.548E-07
CGA:   5    -0.593372149082E+03   -0.57152E-04   -0.57143E-04  1200   0.438E-04-0.246E-06
CGA:   6    -0.593372163695E+03   -0.14613E-04   -0.14612E-04  1200   0.117E-04 0.573E-07
CGA:   7    -0.593372168220E+03   -0.45254E-05   -0.45289E-05  1200   0.371E-05-0.511E-07
CGA:   8    -0.593372169559E+03   -0.13388E-05   -0.13373E-05  1200   0.931E-06 0.272E-07
  12 F= -.59337217E+03 E0= -.59337217E+03  d E =-.557420E-03
       N       E                     dE             d eps       ncg     rms          ort
SDA:   1    -0.593328532578E+03    0.43636E-01    0.00000E+00  1200   0.106E+00 0.000E+00
CGA:   2    -0.593362526077E+03   -0.33993E-01   -0.33993E-01  1200   0.315E-01-0.108E-05
CGA:   3    -0.593370668557E+03   -0.81425E-02   -0.81425E-02  1200   0.435E-02-0.368E-05
CGA:   4    -0.593371828161E+03   -0.11596E-02   -0.11596E-02  1200   0.818E-03-0.185E-06
CGA:   5    -0.593372056401E+03   -0.22824E-03   -0.22822E-03  1200   0.175E-03-0.502E-06
CGA:   6    -0.593372114779E+03   -0.58378E-04   -0.58375E-04  1200   0.467E-04 0.176E-06
CGA:   7    -0.593372132804E+03   -0.18025E-04   -0.18030E-04  1200   0.147E-04-0.676E-07
CGA:   8    -0.593372138164E+03   -0.53593E-05   -0.53566E-05  1200   0.374E-05 0.614E-07
CGA:   9    -0.593372139516E+03   -0.13527E-05   -0.13521E-05  1200   0.825E-06 0.233E-07
  13 F= -.59337214E+03 E0= -.59337214E+03  d E =-.527377E-03
       N       E                     dE             d eps       ncg     rms          ort
SDA:   1    -0.593359832834E+03    0.12305E-01    0.00000E+00  1200   0.302E-01 0.000E+00
CGA:   2    -0.593369511285E+03   -0.96785E-02   -0.96784E-02  1200   0.897E-02-0.321E-05
CGA:   3    -0.593371831294E+03   -0.23200E-02   -0.23202E-02  1200   0.124E-02 0.276E-05
CGA:   4    -0.593372162042E+03   -0.33075E-03   -0.33075E-03  1200   0.234E-03 0.593E-07
CGA:   5    -0.593372227256E+03   -0.65214E-04   -0.65224E-04  1200   0.497E-04 0.269E-06
CGA:   6    -0.593372243914E+03   -0.16658E-04   -0.16658E-04  1200   0.133E-04-0.185E-08
CGA:   7    -0.593372249001E+03   -0.50874E-05   -0.50822E-05  1200   0.411E-05 0.848E-07
CGA:   8    -0.593372250524E+03   -0.15226E-05   -0.15235E-05  1200   0.106E-05-0.152E-07
  14 F= -.59337225E+03 E0= -.59337225E+03  d E =-.638385E-03
       N       E                     dE             d eps       ncg     rms          ort
SDA:   1    -0.593368105836E+03    0.41432E-02    0.00000E+00  1200   0.105E-01 0.000E+00
CGA:   2    -0.593371481742E+03   -0.33759E-02   -0.33759E-02  1200   0.313E-02 0.200E-05
CGA:   3    -0.593372291992E+03   -0.81025E-03   -0.81012E-03  1200   0.421E-03-0.188E-05
CGA:   4    -0.593372404483E+03   -0.11249E-03   -0.11249E-03  1200   0.801E-04 0.598E-07
CGA:   5    -0.593372426704E+03   -0.22220E-04   -0.22220E-04  1200   0.167E-04-0.949E-08
CGA:   6    -0.593372432299E+03   -0.55959E-05   -0.55965E-05  1200   0.437E-05-0.448E-08
CGA:   7    -0.593372433981E+03   -0.16815E-05   -0.16838E-05  1200   0.135E-05-0.333E-07
CGA:   8    -0.593372434458E+03   -0.47678E-06   -0.47623E-06  1200   0.327E-06 0.255E-07
  15 F= -.59337243E+03 E0= -.59337243E+03  d E =-.183934E-03
       N       E                     dE             d eps       ncg     rms          ort
SDA:   1    -0.593353815546E+03    0.18618E-01    0.00000E+00  1200   0.454E-01 0.000E+00
CGA:   2    -0.593368455841E+03   -0.14640E-01   -0.14640E-01  1200   0.136E-01 0.329E-05
CGA:   3    -0.593371970630E+03   -0.35148E-02   -0.35146E-02  1200   0.182E-02-0.366E-05
CGA:   4    -0.593372458250E+03   -0.48762E-03   -0.48762E-03  1200   0.344E-03 0.985E-07
CGA:   5    -0.593372553833E+03   -0.95584E-04   -0.95582E-04  1200   0.728E-04-0.230E-07
CGA:   6    -0.593372578200E+03   -0.24367E-04   -0.24366E-04  1200   0.191E-04 0.180E-07
CGA:   7    -0.593372585541E+03   -0.73415E-05   -0.73451E-05  1200   0.592E-05-0.577E-07
CGA:   8    -0.593372587668E+03   -0.21263E-05   -0.21240E-05  1200   0.147E-05 0.605E-07
  16 F= -.59337259E+03 E0= -.59337259E+03  d E =-.337144E-03
       N       E                     dE             d eps       ncg     rms          ort
SDA:   1    -0.593368768133E+03    0.38174E-02    0.00000E+00  1200   0.986E-02 0.000E+00
CGA:   2    -0.593371916325E+03   -0.31482E-02   -0.31482E-02  1200   0.291E-02 0.585E-06
CGA:   3    -0.593372673065E+03   -0.75674E-03   -0.75667E-03  1200   0.391E-03-0.106E-05
CGA:   4    -0.593372778504E+03   -0.10544E-03   -0.10544E-03  1200   0.743E-04 0.185E-07
CGA:   5    -0.593372799218E+03   -0.20714E-04   -0.20725E-04  1200   0.159E-04 0.282E-06
CGA:   6    -0.593372804648E+03   -0.54306E-05   -0.54316E-05  1200   0.432E-05-0.363E-07
CGA:   7    -0.593372806313E+03   -0.16648E-05   -0.16677E-05  1200   0.134E-05-0.419E-07
CGA:   8    -0.593372806779E+03   -0.46574E-06   -0.46475E-06  1200   0.317E-06 0.443E-07
  17 F= -.59337281E+03 E0= -.59337281E+03  d E =-.219111E-03
       N       E                     dE             d eps       ncg     rms          ort
SDA:   1    -0.593337001234E+03    0.35805E-01    0.00000E+00  1200   0.887E-01 0.000E+00
CGA:   2    -0.593365332515E+03   -0.28331E-01   -0.28331E-01  1200   0.262E-01-0.132E-05
CGA:   3    -0.593372139447E+03   -0.68069E-02   -0.68068E-02  1200   0.352E-02-0.240E-05
CGA:   4    -0.593373088068E+03   -0.94862E-03   -0.94863E-03  1200   0.673E-03 0.960E-07
CGA:   5    -0.593373275695E+03   -0.18763E-03   -0.18766E-03  1200   0.143E-03 0.836E-06
CGA:   6    -0.593373324028E+03   -0.48333E-04   -0.48334E-04  1200   0.381E-04-0.329E-07
CGA:   7    -0.593373338678E+03   -0.14650E-04   -0.14656E-04  1200   0.117E-04-0.864E-07
CGA:   8    -0.593373342856E+03   -0.41788E-05   -0.41730E-05  1200   0.287E-05 0.150E-06
  18 F= -.59337334E+03 E0= -.59337334E+03  d E =-.755189E-03
       N       E                     dE             d eps       ncg     rms          ort
SDA:   1    -0.593228460447E+03    0.14488E+00    0.00000E+00  1200   0.355E+00 0.000E+00
CGA:   2    -0.593341830695E+03   -0.11337E+00   -0.11337E+00  1200   0.105E+00-0.286E-04
CGA:   3    -0.593369072715E+03   -0.27242E-01   -0.27243E-01  1200   0.141E-01 0.161E-05
CGA:   4    -0.593372865851E+03   -0.37931E-02   -0.37931E-02  1200   0.268E-02 0.316E-06
CGA:   5    -0.593373614742E+03   -0.74889E-03   -0.74895E-03  1200   0.570E-03 0.164E-05
CGA:   6    -0.593373807166E+03   -0.19242E-03   -0.19242E-03  1200   0.152E-03 0.145E-06
CGA:   7    -0.593373865350E+03   -0.58184E-04   -0.58188E-04  1200   0.463E-04-0.557E-07
CGA:   8    -0.593373882075E+03   -0.16725E-04   -0.16712E-04  1200   0.115E-04 0.329E-06
CGA:   9    -0.593373886239E+03   -0.41635E-05   -0.41602E-05  1200   0.252E-05 0.929E-07
  19 F= -.59337389E+03 E0= -.59337389E+03  d E =-.129857E-02
       N       E                     dE             d eps       ncg     rms          ort
SDA:   1    -0.593358889880E+03    0.14992E-01    0.00000E+00  1200   0.379E-01 0.000E+00
CGA:   2    -0.593370991871E+03   -0.12102E-01   -0.12102E-01  1200   0.110E-01-0.209E-05
CGA:   3    -0.593373870834E+03   -0.28790E-02   -0.28789E-02  1200   0.149E-02-0.157E-05
CGA:   4    -0.593374271450E+03   -0.40062E-03   -0.40062E-03  1200   0.287E-03 0.136E-06
CGA:   5    -0.593374350428E+03   -0.78979E-04   -0.79009E-04  1200   0.604E-04 0.656E-06
CGA:   6    -0.593374370883E+03   -0.20455E-04   -0.20459E-04  1200   0.163E-04-0.203E-06
CGA:   7    -0.593374377097E+03   -0.62142E-05   -0.62178E-05  1200   0.497E-05-0.517E-07
CGA:   8    -0.593374378858E+03   -0.17604E-05   -0.17565E-05  1200   0.119E-05 0.136E-06
  20 F= -.59337438E+03 E0= -.59337438E+03  d E =-.492619E-03
       N       E                     dE             d eps       ncg     rms          ort
SDA:   1    -0.593235582514E+03    0.13879E+00    0.00000E+00  1200   0.341E+00 0.000E+00
CGA:   2    -0.593344565776E+03   -0.10898E+00   -0.10898E+00  1200   0.995E-01-0.188E-04
CGA:   3    -0.593370539217E+03   -0.25973E-01   -0.25974E-01  1200   0.134E-01 0.621E-06
CGA:   4    -0.593374150905E+03   -0.36117E-02   -0.36117E-02  1200   0.256E-02 0.696E-06
CGA:   5    -0.593374860897E+03   -0.70999E-03   -0.71008E-03  1200   0.540E-03 0.198E-05
CGA:   6    -0.593375042487E+03   -0.18159E-03   -0.18160E-03  1200   0.143E-03-0.344E-06
CGA:   7    -0.593375097226E+03   -0.54739E-04   -0.54739E-04  1200   0.435E-04 0.534E-09
CGA:   8    -0.593375112968E+03   -0.15741E-04   -0.15723E-04  1200   0.107E-04 0.451E-06
CGA:   9    -0.593375116861E+03   -0.38938E-05   -0.38902E-05  1200   0.238E-05 0.995E-07
  21 F= -.59337512E+03 E0= -.59337512E+03  d E =-.123062E-02
       N       E                     dE             d eps       ncg     rms          ort
SDA:   1    -0.593351208413E+03    0.23905E-01    0.00000E+00  1200   0.600E-01 0.000E+00
CGA:   2    -0.593370284718E+03   -0.19076E-01   -0.19076E-01  1200   0.175E-01-0.164E-05
CGA:   3    -0.593374863203E+03   -0.45785E-02   -0.45783E-02  1200   0.239E-02-0.220E-05
CGA:   4    -0.593375500853E+03   -0.63765E-03   -0.63767E-03  1200   0.459E-03 0.275E-06
CGA:   5    -0.593375627438E+03   -0.12658E-03   -0.12662E-03  1200   0.958E-04 0.838E-06
CGA:   6    -0.593375659880E+03   -0.32442E-04   -0.32446E-04  1200   0.257E-04-0.236E-06
CGA:   7    -0.593375669672E+03   -0.97921E-05   -0.97951E-05  1200   0.783E-05-0.496E-07
CGA:   8    -0.593375672470E+03   -0.27984E-05   -0.27932E-05  1200   0.191E-05 0.160E-06
  22 F= -.59337567E+03 E0= -.59337567E+03  d E =-.555609E-03
       N       E                     dE             d eps       ncg     rms          ort
SDA:   1    -0.593258828493E+03    0.11684E+00    0.00000E+00  1200   0.288E+00 0.000E+00
CGA:   2    -0.593350304222E+03   -0.91476E-01   -0.91476E-01  1200   0.842E-01 0.150E-05
CGA:   3    -0.593372303902E+03   -0.22000E-01   -0.21999E-01  1200   0.114E-01-0.278E-05
CGA:   4    -0.593375366508E+03   -0.30626E-02   -0.30627E-02  1200   0.219E-02 0.921E-06
CGA:   5    -0.593375973300E+03   -0.60679E-03   -0.60687E-03  1200   0.459E-03 0.182E-05
CGA:   6    -0.593376127787E+03   -0.15449E-03   -0.15449E-03  1200   0.122E-03-0.333E-06
CGA:   7    -0.593376174194E+03   -0.46407E-04   -0.46408E-04  1200   0.370E-04-0.123E-07
CGA:   8    -0.593376187583E+03   -0.13389E-04   -0.13374E-04  1200   0.916E-05 0.376E-06
CGA:   9    -0.593376190911E+03   -0.33277E-05   -0.33247E-05  1200   0.203E-05 0.866E-07
  23 F= -.59337619E+03 E0= -.59337619E+03  d E =-.107405E-02
       N       E                     dE             d eps       ncg     rms          ort
SDA:   1    -0.593334610167E+03    0.41577E-01    0.00000E+00  1200   0.103E+00 0.000E+00
CGA:   2    -0.593367444273E+03   -0.32834E-01   -0.32834E-01  1200   0.302E-01-0.241E-05
CGA:   3    -0.593375339082E+03   -0.78948E-02   -0.78948E-02  1200   0.416E-02-0.173E-05
CGA:   4    -0.593376451871E+03   -0.11128E-02   -0.11128E-02  1200   0.808E-03 0.237E-06
CGA:   5    -0.593376676084E+03   -0.22421E-03   -0.22426E-03  1200   0.171E-03 0.109E-05
CGA:   6    -0.593376734285E+03   -0.58201E-04   -0.58205E-04  1200   0.465E-04-0.174E-06
CGA:   7    -0.593376752073E+03   -0.17788E-04   -0.17791E-04  1200   0.143E-04-0.514E-07
CGA:   8    -0.593376757215E+03   -0.51423E-05   -0.51355E-05  1200   0.353E-05 0.207E-06
CGA:   9    -0.593376758502E+03   -0.12874E-05   -0.12859E-05  1200   0.784E-06 0.527E-07
  24 F= -.59337676E+03 E0= -.59337676E+03  d E =-.567592E-03
       N       E                     dE             d eps       ncg     rms          ort
SDA:   1    -0.593258684921E+03    0.11807E+00    0.00000E+00  1200   0.291E+00 0.000E+00
CGA:   2    -0.593350943489E+03   -0.92259E-01   -0.92258E-01  1200   0.850E-01-0.127E-04
CGA:   3    -0.593373137812E+03   -0.22194E-01   -0.22195E-01  1200   0.117E-01 0.344E-06
CGA:   4    -0.593376264956E+03   -0.31271E-02   -0.31272E-02  1200   0.227E-02 0.583E-06
CGA:   5    -0.593376894400E+03   -0.62944E-03   -0.62953E-03  1200   0.479E-03 0.180E-05
CGA:   6    -0.593377056993E+03   -0.16259E-03   -0.16260E-03  1200   0.129E-03-0.145E-06
CGA:   7    -0.593377106522E+03   -0.49529E-04   -0.49529E-04  1200   0.398E-04-0.113E-07
CGA:   8    -0.593377120900E+03   -0.14378E-04   -0.14365E-04  1200   0.988E-05 0.362E-06
CGA:   9    -0.593377124496E+03   -0.35967E-05   -0.35940E-05  1200   0.219E-05 0.880E-07
  25 F= -.59337712E+03 E0= -.59337712E+03  d E =-.933586E-03
       N       E                     dE             d eps       ncg     rms          ort
SDA:   1    -0.593323085701E+03    0.54035E-01    0.00000E+00  1200   0.134E+00 0.000E+00
CGA:   2    -0.593365549838E+03   -0.42464E-01   -0.42464E-01  1200   0.393E-01 0.193E-05
CGA:   3    -0.593375872381E+03   -0.10323E-01   -0.10322E-01  1200   0.543E-02-0.390E-05
CGA:   4    -0.593377320942E+03   -0.14486E-02   -0.14486E-02  1200   0.106E-02 0.365E-06
CGA:   5    -0.593377614735E+03   -0.29379E-03   -0.29383E-03  1200   0.223E-03 0.768E-06
CGA:   6    -0.593377690884E+03   -0.76149E-04   -0.76151E-04  1200   0.606E-04-0.131E-06
CGA:   7    -0.593377714058E+03   -0.23173E-04   -0.23176E-04  1200   0.187E-04-0.534E-07
CGA:   8    -0.593377720788E+03   -0.67301E-05   -0.67236E-05  1200   0.465E-05 0.195E-06
CGA:   9    -0.593377722475E+03   -0.16873E-05   -0.16860E-05  1200   0.103E-05 0.466E-07
  26 F= -.59337772E+03 E0= -.59337772E+03  d E =-.597979E-03
       N       E                     dE             d eps       ncg     rms          ort
SDA:   1    -0.593336190345E+03    0.41530E-01    0.00000E+00  1200   0.102E+00 0.000E+00
CGA:   2    -0.593368593552E+03   -0.32403E-01   -0.32403E-01  1200   0.300E-01 0.216E-05
CGA:   3    -0.593376473183E+03   -0.78796E-02   -0.78794E-02  1200   0.414E-02-0.364E-05
CGA:   4    -0.593377578898E+03   -0.11057E-02   -0.11057E-02  1200   0.807E-03 0.287E-06
CGA:   5    -0.593377803200E+03   -0.22430E-03   -0.22433E-03  1200   0.170E-03 0.637E-06
CGA:   6    -0.593377861331E+03   -0.58131E-04   -0.58133E-04  1200   0.463E-04-0.116E-06
CGA:   7    -0.593377879017E+03   -0.17686E-04   -0.17689E-04  1200   0.143E-04-0.476E-07
CGA:   8    -0.593377884145E+03   -0.51277E-05   -0.51221E-05  1200   0.354E-05 0.166E-06
CGA:   9    -0.593377885430E+03   -0.12849E-05   -0.12836E-05  1200   0.784E-06 0.398E-07
  27 F= -.59337789E+03 E0= -.59337789E+03  d E =-.760933E-03
       N       E                     dE             d eps       ncg     rms          ort
SDA:   1    -0.593371502242E+03    0.63819E-02    0.00000E+00  1200   0.160E-01 0.000E+00
CGA:   2    -0.593376665293E+03   -0.51631E-02   -0.51631E-02  1200   0.477E-02 0.266E-05
CGA:   3    -0.593377904448E+03   -0.12392E-02   -0.12390E-02  1200   0.659E-03-0.240E-05
CGA:   4    -0.593378078544E+03   -0.17410E-03   -0.17410E-03  1200   0.127E-03-0.155E-09
CGA:   5    -0.593378113994E+03   -0.35450E-04   -0.35445E-04  1200   0.265E-04-0.103E-06
CGA:   6    -0.593378122984E+03   -0.89904E-05   -0.89905E-05  1200   0.721E-05-0.115E-07
CGA:   7    -0.593378125730E+03   -0.27463E-05   -0.27474E-05  1200   0.223E-05-0.226E-07
CGA:   8    -0.593378126535E+03   -0.80453E-06   -0.80401E-06  1200   0.558E-06 0.220E-07
  28 F= -.59337813E+03 E0= -.59337813E+03  d E =-.241105E-03
       N       E                     dE             d eps       ncg     rms          ort
SDA:   1    -0.593361687008E+03    0.16439E-01    0.00000E+00  1200   0.402E-01 0.000E+00
CGA:   2    -0.593374608235E+03   -0.12921E-01   -0.12921E-01  1200   0.120E-01 0.347E-05
CGA:   3    -0.593377715384E+03   -0.31071E-02   -0.31069E-02  1200   0.165E-02-0.364E-05
CGA:   4    -0.593378151764E+03   -0.43638E-03   -0.43638E-03  1200   0.316E-03 0.506E-08
CGA:   5    -0.593378240261E+03   -0.88497E-04   -0.88490E-04  1200   0.662E-04-0.168E-06
CGA:   6    -0.593378262658E+03   -0.22397E-04   -0.22397E-04  1200   0.179E-04 0.503E-08
CGA:   7    -0.593378269470E+03   -0.68119E-05   -0.68138E-05  1200   0.553E-05-0.295E-07
CGA:   8    -0.593378271472E+03   -0.20023E-05   -0.20004E-05  1200   0.139E-05 0.392E-07
  29 F= -.59337827E+03 E0= -.59337827E+03  d E =-.386043E-03
       N       E                     dE             d eps       ncg     rms          ort
SDA:   1    -0.593372590796E+03    0.56787E-02    0.00000E+00  1200   0.143E-01 0.000E+00
CGA:   2    -0.593377249932E+03   -0.46591E-02   -0.46591E-02  1200   0.419E-02 0.174E-05
CGA:   3    -0.593378324090E+03   -0.10742E-02   -0.10741E-02  1200   0.577E-03-0.158E-05
CGA:   4    -0.593378476768E+03   -0.15268E-03   -0.15268E-03  1200   0.109E-03-0.274E-07
CGA:   5    -0.593378507155E+03   -0.30387E-04   -0.30387E-04  1200   0.227E-04-0.644E-08
CGA:   6    -0.593378514802E+03   -0.76472E-05   -0.76476E-05  1200   0.606E-05-0.300E-07
CGA:   7    -0.593378517101E+03   -0.22985E-05   -0.22990E-05  1200   0.186E-05-0.829E-08
CGA:   8    -0.593378517773E+03   -0.67184E-06   -0.67023E-06  1200   0.456E-06 0.305E-07
  30 F= -.59337852E+03 E0= -.59337852E+03  d E =-.246300E-03
       N       E                     dE             d eps       ncg     rms          ort
SDA:   1    -0.593348326408E+03    0.30191E-01    0.00000E+00  1200   0.732E-01 0.000E+00
CGA:   2    -0.593372235558E+03   -0.23909E-01   -0.23909E-01  1200   0.215E-01-0.592E-06
CGA:   3    -0.593377747321E+03   -0.55118E-02   -0.55117E-02  1200   0.296E-02-0.279E-05
CGA:   4    -0.593378531120E+03   -0.78380E-03   -0.78379E-03  1200   0.562E-03-0.531E-07
CGA:   5    -0.593378687587E+03   -0.15647E-03   -0.15647E-03  1200   0.116E-03-0.221E-07
CGA:   6    -0.593378726584E+03   -0.38997E-04   -0.38998E-04  1200   0.307E-04-0.192E-07
CGA:   7    -0.593378738252E+03   -0.11668E-04   -0.11667E-04  1200   0.939E-05 0.649E-08
CGA:   8    -0.593378741678E+03   -0.34260E-05   -0.34227E-05  1200   0.234E-05 0.721E-07
  31 F= -.59337874E+03 E0= -.59337874E+03  d E =-.470205E-03
       N       E                     dE             d eps       ncg     rms          ort
SDA:   1    -0.593370603855E+03    0.81344E-02    0.00000E+00  1200   0.201E-01 0.000E+00
CGA:   2    -0.593377233337E+03   -0.66295E-02   -0.66295E-02  1200   0.592E-02 0.193E-05
CGA:   3    -0.593378749092E+03   -0.15158E-02   -0.15156E-02  1200   0.810E-03-0.172E-05
CGA:   4    -0.593378962048E+03   -0.21296E-03   -0.21296E-03  1200   0.152E-03 0.119E-06
CGA:   5    -0.593379004273E+03   -0.42224E-04   -0.42233E-04  1200   0.311E-04 0.222E-06
CGA:   6    -0.593379014750E+03   -0.10478E-04   -0.10478E-04  1200   0.822E-05-0.179E-07
CGA:   7    -0.593379017853E+03   -0.31026E-05   -0.31018E-05  1200   0.249E-05 0.929E-08
CGA:   8    -0.593379018752E+03   -0.89957E-06   -0.89771E-06  1200   0.613E-06 0.433E-07
  32 F= -.59337902E+03 E0= -.59337902E+03  d E =-.277075E-03
       N       E                     dE             d eps       ncg     rms          ort
SDA:   1    -0.593351529641E+03    0.27488E-01    0.00000E+00  1200   0.662E-01 0.000E+00
CGA:   2    -0.593373338911E+03   -0.21809E-01   -0.21809E-01  1200   0.195E-01 0.329E-05
CGA:   3    -0.593378325354E+03   -0.49864E-02   -0.49862E-02  1200   0.267E-02-0.291E-05
CGA:   4    -0.593379026167E+03   -0.70081E-03   -0.70083E-03  1200   0.503E-03 0.259E-06
CGA:   5    -0.593379165754E+03   -0.13959E-03   -0.13960E-03  1200   0.102E-03 0.393E-06
CGA:   6    -0.593379200043E+03   -0.34289E-04   -0.34289E-04  1200   0.268E-04 0.668E-08
CGA:   7    -0.593379210157E+03   -0.10113E-04   -0.10111E-04  1200   0.808E-05 0.346E-07
CGA:   8    -0.593379213094E+03   -0.29374E-05   -0.29344E-05  1200   0.201E-05 0.800E-07
  33 F= -.59337921E+03 E0= -.59337921E+03  d E =-.471416E-03
       N       E                     dE             d eps       ncg     rms          ort
SDA:   1    -0.593370189233E+03    0.90209E-02    0.00000E+00  1200   0.221E-01 0.000E+00
CGA:   2    -0.593377545917E+03   -0.73567E-02   -0.73567E-02  1200   0.646E-02-0.782E-06
CGA:   3    -0.593379190326E+03   -0.16444E-02   -0.16444E-02  1200   0.910E-03 0.175E-06
CGA:   4    -0.593379428418E+03   -0.23809E-03   -0.23810E-03  1200   0.169E-03 0.182E-06
CGA:   5    -0.593379475667E+03   -0.47249E-04   -0.47274E-04  1200   0.347E-04 0.642E-06
CGA:   6    -0.593379487344E+03   -0.11677E-04   -0.11678E-04  1200   0.932E-05-0.131E-07
CGA:   7    -0.593379490839E+03   -0.34952E-05   -0.34925E-05  1200   0.279E-05 0.483E-07
CGA:   8    -0.593379491848E+03   -0.10087E-05   -0.10054E-05  1200   0.685E-06 0.842E-07
  34 F= -.59337949E+03 E0= -.59337949E+03  d E =-.278754E-03
       N       E                     dE             d eps       ncg     rms          ort
SDA:   1    -0.593366504160E+03    0.12987E-01    0.00000E+00  1200   0.312E-01 0.000E+00
CGA:   2    -0.593376866579E+03   -0.10362E-01   -0.10362E-01  1200   0.909E-02-0.768E-06
CGA:   3    -0.593379181768E+03   -0.23152E-02   -0.23152E-02  1200   0.128E-02 0.215E-06
CGA:   4    -0.593379517164E+03   -0.33540E-03   -0.33541E-03  1200   0.239E-03 0.229E-06
CGA:   5    -0.593379583930E+03   -0.66766E-04   -0.66795E-04  1200   0.489E-04 0.754E-06
CGA:   6    -0.593379600345E+03   -0.16415E-04   -0.16415E-04  1200   0.131E-04-0.383E-08
CGA:   7    -0.593379605254E+03   -0.49091E-05   -0.49053E-05  1200   0.391E-05 0.626E-07
CGA:   8    -0.593379606672E+03   -0.14182E-05   -0.14140E-05  1200   0.964E-06 0.102E-06
  35 F= -.59337961E+03 E0= -.59337961E+03  d E =-.393578E-03
       N       E                     dE             d eps       ncg     rms          ort
SDA:   1    -0.593374093070E+03    0.55122E-02    0.00000E+00  1200   0.135E-01 0.000E+00
CGA:   2    -0.593378567797E+03   -0.44747E-02   -0.44748E-02  1200   0.406E-02-0.634E-05
CGA:   3    -0.593379591597E+03   -0.10238E-02   -0.10238E-02  1200   0.570E-03 0.847E-06
CGA:   4    -0.593379741037E+03   -0.14944E-03   -0.14945E-03  1200   0.107E-03 0.129E-06
CGA:   5    -0.593379770790E+03   -0.29753E-04   -0.29776E-04  1200   0.219E-04 0.588E-06
CGA:   6    -0.593379778230E+03   -0.74403E-05   -0.74439E-05  1200   0.599E-05-0.165E-06
CGA:   7    -0.593379780436E+03   -0.22060E-05   -0.22061E-05  1200   0.180E-05 0.580E-08
CGA:   8    -0.593379781069E+03   -0.63271E-06   -0.63005E-06  1200   0.428E-06 0.913E-07
  36 F= -.59337978E+03 E0= -.59337978E+03  d E =-.174397E-03
       N       E                     dE             d eps       ncg     rms          ort
SDA:   1    -0.593379184759E+03    0.59568E-03    0.00000E+00  1200   0.144E-02 0.000E+00
CGA:   2    -0.593379663119E+03   -0.47836E-03   -0.47838E-03  1200   0.435E-03-0.228E-05
CGA:   3    -0.593379772411E+03   -0.10929E-03   -0.10931E-03  1200   0.608E-04 0.281E-06
CGA:   4    -0.593379788373E+03   -0.15962E-04   -0.15965E-04  1200   0.113E-04 0.496E-07
CGA:   5    -0.593379791500E+03   -0.31262E-05   -0.31340E-05  1200   0.231E-05 0.190E-06
CGA:   6    -0.593379792313E+03   -0.81291E-06   -0.81482E-06  1200   0.670E-06-0.549E-07
CGA:   7    -0.593379792552E+03   -0.23924E-06   -0.23911E-06  1200   0.196E-06 0.340E-08
CGA:   8    -0.593379792614E+03   -0.62590E-07   -0.62564E-07  1200   0.435E-07 0.271E-07
  37 F= -.59337979E+03 E0= -.59337979E+03  d E =-.185942E-03
       N       E                     dE             d eps       ncg     rms          ort
SDA:   1    -0.593379018636E+03    0.77392E-03    0.00000E+00  1200   0.196E-02 0.000E+00
CGA:   2    -0.593379676626E+03   -0.65799E-03   -0.65801E-03  1200   0.594E-03-0.128E-05
CGA:   3    -0.593379825463E+03   -0.14884E-03   -0.14882E-03  1200   0.884E-04-0.255E-06
CGA:   4    -0.593379848488E+03   -0.23025E-04   -0.23025E-04  1200   0.161E-04-0.579E-08
CGA:   5    -0.593379853000E+03   -0.45122E-05   -0.45154E-05  1200   0.330E-05 0.913E-07
CGA:   6    -0.593379854089E+03   -0.10891E-05   -0.10888E-05  1200   0.869E-06 0.205E-07
CGA:   7    -0.593379854407E+03   -0.31755E-06   -0.31673E-06  1200   0.261E-06 0.169E-07
CGA:   8    -0.593379854501E+03   -0.94235E-07   -0.94011E-07  1200   0.656E-07 0.131E-07
  38 F= -.59337985E+03 E0= -.59337985E+03  d E =-.618864E-04
       N       E                     dE             d eps       ncg     rms          ort
SDA:   1    -0.593379757188E+03    0.97219E-04    0.00000E+00  1200   0.239E-03 0.000E+00
CGA:   2    -0.593379837346E+03   -0.80158E-04   -0.80167E-04  1200   0.725E-04-0.471E-06
CGA:   3    -0.593379855481E+03   -0.18135E-04   -0.18128E-04  1200   0.107E-04-0.932E-07
CGA:   4    -0.593379858283E+03   -0.28025E-05   -0.28024E-05  1200   0.194E-05-0.341E-08
CGA:   5    -0.593379858824E+03   -0.54104E-06   -0.54213E-06  1200   0.398E-06 0.305E-07
CGA:   6    -0.593379858957E+03   -0.13284E-06   -0.13260E-06  1200   0.106E-06 0.732E-08
CGA:   7    -0.593379858996E+03   -0.38668E-07   -0.38146E-07  1200   0.312E-07 0.575E-08
CGA:   8    -0.593379859007E+03   -0.10914E-07   -0.10945E-07  1200   0.766E-08 0.423E-08
  39 F= -.59337986E+03 E0= -.59337986E+03  d E =-.663923E-04
       N       E                     dE             d eps       ncg     rms          ort
SDA:   1    -0.593379424525E+03    0.43447E-03    0.00000E+00  1200   0.117E-02 0.000E+00
CGA:   2    -0.593379827868E+03   -0.40334E-03   -0.40336E-03  1200   0.330E-03-0.557E-06
CGA:   3    -0.593379911824E+03   -0.83955E-04   -0.83966E-04  1200   0.493E-04 0.187E-06
CGA:   4    -0.593379924541E+03   -0.12718E-04   -0.12716E-04  1200   0.932E-05-0.436E-07
CGA:   5    -0.593379927159E+03   -0.26178E-05   -0.26196E-05  1200   0.197E-05 0.726E-07
CGA:   6    -0.593379927816E+03   -0.65717E-06   -0.65588E-06  1200   0.532E-06 0.532E-07
CGA:   7    -0.593379928018E+03   -0.20123E-06   -0.19937E-06  1200   0.155E-06 0.304E-07
CGA:   8    -0.593379928078E+03   -0.60863E-07   -0.60499E-07  1200   0.412E-07 0.531E-08
  40 F= -.59337993E+03 E0= -.59337993E+03  d E =-.690717E-04
       N       E                     dE             d eps       ncg     rms          ort
SDA:   1    -0.593375553273E+03    0.43747E-02    0.00000E+00  1200   0.105E-01 0.000E+00
CGA:   2    -0.593379181658E+03   -0.36284E-02   -0.36284E-02  1200   0.297E-02-0.129E-05
CGA:   3    -0.593379937545E+03   -0.75589E-03   -0.75592E-03  1200   0.443E-03 0.578E-06
CGA:   4    -0.593380051873E+03   -0.11433E-03   -0.11432E-03  1200   0.836E-04-0.122E-06
CGA:   5    -0.593380075530E+03   -0.23657E-04   -0.23662E-04  1200   0.179E-04 0.218E-06
CGA:   6    -0.593380081540E+03   -0.60097E-05   -0.60050E-05  1200   0.492E-05 0.169E-06
CGA:   7    -0.593380083408E+03   -0.18679E-05   -0.18614E-05  1200   0.147E-05 0.955E-07
CGA:   8    -0.593380083961E+03   -0.55285E-06   -0.55232E-06  1200   0.378E-06 0.123E-07
  41 F= -.59338008E+03 E0= -.59338008E+03  d E =-.224954E-03
       N       E                     dE             d eps       ncg     rms          ort
SDA:   1    -0.593362044773E+03    0.18039E-01    0.00000E+00  1200   0.421E-01 0.000E+00
CGA:   2    -0.593376555992E+03   -0.14511E-01   -0.14511E-01  1200   0.119E-01-0.104E-05
CGA:   3    -0.593379579438E+03   -0.30234E-02   -0.30235E-02  1200   0.177E-02 0.118E-05
CGA:   4    -0.593380036373E+03   -0.45693E-03   -0.45692E-03  1200   0.334E-03-0.213E-06
CGA:   5    -0.593380130971E+03   -0.94598E-04   -0.94610E-04  1200   0.717E-04 0.426E-06
CGA:   6    -0.593380155098E+03   -0.24127E-04   -0.24118E-04  1200   0.198E-04 0.361E-06
CGA:   7    -0.593380162627E+03   -0.75289E-05   -0.75156E-05  1200   0.596E-05 0.201E-06
CGA:   8    -0.593380164845E+03   -0.22177E-05   -0.22162E-05  1200   0.152E-05 0.262E-07
  42 F= -.59338016E+03 E0= -.59338016E+03  d E =-.305838E-03
       N       E                     dE             d eps       ncg     rms          ort
SDA:   1    -0.593379953927E+03    0.20870E-03    0.00000E+00  1200   0.585E-03 0.000E+00
CGA:   2    -0.593380153039E+03   -0.19911E-03   -0.19912E-03  1200   0.167E-03-0.349E-06
CGA:   3    -0.593380195640E+03   -0.42601E-04   -0.42599E-04  1200   0.243E-04-0.146E-07
CGA:   4    -0.593380202022E+03   -0.63821E-05   -0.63793E-05  1200   0.447E-05-0.466E-07
CGA:   5    -0.593380203287E+03   -0.12645E-05   -0.12652E-05  1200   0.995E-06 0.246E-07
CGA:   6    -0.593380203617E+03   -0.33049E-06   -0.33010E-06  1200   0.266E-06 0.324E-07
CGA:   7    -0.593380203719E+03   -0.10189E-06   -0.10091E-06  1200   0.812E-07 0.158E-07
CGA:   8    -0.593380203752E+03   -0.33539E-07   -0.33099E-07  1200   0.237E-07-0.117E-08
  43 F= -.59338020E+03 E0= -.59338020E+03  d E =-.389077E-04
       N       E                     dE             d eps       ncg     rms          ort
SDA:   1    -0.593378052134E+03    0.21516E-02    0.00000E+00  1200   0.524E-02 0.000E+00
CGA:   2    -0.593379840263E+03   -0.17881E-02   -0.17881E-02  1200   0.150E-02-0.892E-06
CGA:   3    -0.593380221618E+03   -0.38136E-03   -0.38135E-03  1200   0.219E-03-0.133E-07
CGA:   4    -0.593380278857E+03   -0.57239E-04   -0.57232E-04  1200   0.415E-04-0.134E-06
CGA:   5    -0.593380290531E+03   -0.11674E-04   -0.11676E-04  1200   0.881E-05 0.774E-07
CGA:   6    -0.593380293487E+03   -0.29558E-05   -0.29536E-05  1200   0.236E-05 0.995E-07
CGA:   7    -0.593380294384E+03   -0.89695E-06   -0.89413E-06  1200   0.709E-06 0.477E-07
CGA:   8    -0.593380294653E+03   -0.26898E-06   -0.26891E-06  1200   0.188E-06-0.569E-08
  44 F= -.59338029E+03 E0= -.59338029E+03  d E =-.129808E-03
       N       E                     dE             d eps       ncg     rms          ort
SDA:   1    -0.593371396128E+03    0.88983E-02    0.00000E+00  1200   0.210E-01 0.000E+00
CGA:   2    -0.593378548261E+03   -0.71521E-02   -0.71521E-02  1200   0.599E-02-0.104E-05
CGA:   3    -0.593380073764E+03   -0.15255E-02   -0.15255E-02  1200   0.877E-03-0.964E-08
CGA:   4    -0.593380302565E+03   -0.22880E-03   -0.22879E-03  1200   0.166E-03-0.250E-06
CGA:   5    -0.593380349256E+03   -0.46691E-04   -0.46696E-04  1200   0.353E-04 0.147E-06
CGA:   6    -0.593380361140E+03   -0.11884E-04   -0.11880E-04  1200   0.951E-05 0.208E-06
CGA:   7    -0.593380364760E+03   -0.36197E-05   -0.36134E-05  1200   0.288E-05 0.997E-07
CGA:   8    -0.593380365831E+03   -0.10706E-05   -0.10715E-05  1200   0.746E-06-0.146E-07
  45 F= -.59338037E+03 E0= -.59338037E+03  d E =-.200986E-03
       N       E                     dE             d eps       ncg     rms          ort
SDA:   1    -0.593380305241E+03    0.59519E-04    0.00000E+00  1200   0.284E-03 0.000E+00
CGA:   2    -0.593380399001E+03   -0.93759E-04   -0.93749E-04  1200   0.869E-04 0.107E-05
CGA:   3    -0.593380421112E+03   -0.22111E-04   -0.22078E-04  1200   0.130E-04-0.484E-06
CGA:   4    -0.593380424493E+03   -0.33817E-05   -0.33772E-05  1200   0.234E-05-0.801E-07
CGA:   5    -0.593380425176E+03   -0.68302E-06   -0.68055E-06  1200   0.557E-06-0.107E-06
CGA:   6    -0.593380425329E+03   -0.15292E-06   -0.15426E-06  1200   0.123E-06 0.463E-07
CGA:   7    -0.593380425376E+03   -0.46487E-07   -0.45938E-07  1200   0.398E-07 0.145E-07
CGA:   8    -0.593380425396E+03   -0.20298E-07   -0.25997E-07  1200   0.385E-07-0.229E-07
  46 F= -.59338043E+03 E0= -.59338043E+03  d E =-.595656E-04
       N       E                     dE             d eps       ncg     rms          ort
SDA:   1    -0.593379464935E+03    0.96044E-03    0.00000E+00  1200   0.255E-02 0.000E+00
CGA:   2    -0.593380309633E+03   -0.84470E-03   -0.84466E-03  1200   0.784E-03 0.315E-05
CGA:   3    -0.593380507086E+03   -0.19745E-03   -0.19736E-03  1200   0.117E-03-0.144E-05
CGA:   4    -0.593380537411E+03   -0.30325E-04   -0.30311E-04  1200   0.214E-04-0.251E-06
CGA:   5    -0.593380543495E+03   -0.60838E-05   -0.60746E-05  1200   0.465E-05-0.304E-06
CGA:   6    -0.593380544942E+03   -0.14472E-05   -0.14468E-05  1200   0.116E-05 0.138E-06
CGA:   7    -0.593380545385E+03   -0.44242E-06   -0.44060E-06  1200   0.368E-06 0.341E-07
CGA:   8    -0.593380545540E+03   -0.15588E-06   -0.16270E-06  1200   0.140E-06-0.589E-07
  47 F= -.59338055E+03 E0= -.59338055E+03  d E =-.179710E-03
       N       E                     dE             d eps       ncg     rms          ort
SDA:   1    -0.593376204005E+03    0.43414E-02    0.00000E+00  1200   0.102E-01 0.000E+00
CGA:   2    -0.593379584705E+03   -0.33807E-02   -0.33806E-02  1200   0.314E-02 0.600E-05
CGA:   3    -0.593380373615E+03   -0.78891E-03   -0.78873E-03  1200   0.466E-03-0.280E-05
CGA:   4    -0.593380494772E+03   -0.12116E-03   -0.12113E-03  1200   0.853E-04-0.511E-06
CGA:   5    -0.593380518854E+03   -0.24083E-04   -0.24063E-04  1200   0.183E-04-0.603E-06
CGA:   6    -0.593380524716E+03   -0.58620E-05   -0.58596E-05  1200   0.474E-05 0.280E-06
CGA:   7    -0.593380526507E+03   -0.17903E-05   -0.17863E-05  1200   0.150E-05 0.652E-07
CGA:   8    -0.593380527097E+03   -0.59028E-06   -0.59889E-06  1200   0.458E-06-0.107E-06
  48 F= -.59338053E+03 E0= -.59338053E+03  d E =-.161266E-03
       N       E                     dE             d eps       ncg     rms          ort
SDA:   1    -0.593379271682E+03    0.12548E-02    0.00000E+00  1200   0.308E-02 0.000E+00
CGA:   2    -0.593380296061E+03   -0.10244E-02   -0.10244E-02  1200   0.951E-03-0.332E-05
CGA:   3    -0.593380533605E+03   -0.23754E-03   -0.23765E-03  1200   0.141E-03 0.158E-05
CGA:   4    -0.593380570205E+03   -0.36601E-04   -0.36617E-04  1200   0.260E-04 0.276E-06
CGA:   5    -0.593380577411E+03   -0.72060E-05   -0.72183E-05  1200   0.535E-05 0.323E-06
CGA:   6    -0.593380579253E+03   -0.18419E-05   -0.18462E-05  1200   0.155E-05-0.148E-06
CGA:   7    -0.593380579808E+03   -0.55518E-06   -0.55655E-06  1200   0.470E-06-0.249E-07
CGA:   8    -0.593380579957E+03   -0.14854E-06   -0.14834E-06  1200   0.104E-06 0.509E-07
  49 F= -.59338058E+03 E0= -.59338058E+03  d E =-.214126E-03
       N       E                     dE             d eps       ncg     rms          ort
SDA:   1    -0.593380357039E+03    0.22277E-03    0.00000E+00  1200   0.695E-03 0.000E+00
CGA:   2    -0.593380596736E+03   -0.23970E-03   -0.23968E-03  1200   0.206E-03 0.910E-06
CGA:   3    -0.593380649033E+03   -0.52297E-04   -0.52274E-04  1200   0.299E-04-0.323E-06
CGA:   4    -0.593380656819E+03   -0.77855E-05   -0.77831E-05  1200   0.556E-05-0.452E-07
CGA:   5    -0.593380658427E+03   -0.16085E-05   -0.16058E-05  1200   0.123E-05-0.113E-06
CGA:   6    -0.593380658808E+03   -0.38114E-06   -0.38129E-06  1200   0.305E-06 0.503E-07
CGA:   7    -0.593380658928E+03   -0.11986E-06   -0.11896E-06  1200   0.951E-07 0.160E-07
CGA:   8    -0.593380658971E+03   -0.42506E-07   -0.45100E-07  1200   0.401E-07-0.185E-07
  50 F= -.59338066E+03 E0= -.59338066E+03  d E =-.790139E-04
       N       E                     dE             d eps       ncg     rms          ort
SDA:   1    -0.593378058869E+03    0.26001E-02    0.00000E+00  1200   0.626E-02 0.000E+00
CGA:   2    -0.593380218237E+03   -0.21594E-02   -0.21593E-02  1200   0.186E-02 0.272E-05
CGA:   3    -0.593380688764E+03   -0.47053E-03   -0.47046E-03  1200   0.268E-03-0.959E-06
CGA:   4    -0.593380758897E+03   -0.70134E-04   -0.70124E-04  1200   0.494E-04-0.165E-06
CGA:   5    -0.593380773088E+03   -0.14191E-04   -0.14181E-04  1200   0.107E-04-0.329E-06
CGA:   6    -0.593380776629E+03   -0.35414E-05   -0.35386E-05  1200   0.288E-05 0.157E-06
CGA:   7    -0.593380777750E+03   -0.11209E-05   -0.11179E-05  1200   0.902E-06 0.448E-07
CGA:   8    -0.593380778107E+03   -0.35623E-06   -0.35967E-06  1200   0.264E-06-0.487E-07
  51 F= -.59338078E+03 E0= -.59338078E+03  d E =-.198150E-03
       N       E                     dE             d eps       ncg     rms          ort
SDA:   1    -0.593380695040E+03    0.82710E-04    0.00000E+00  1200   0.198E-03 0.000E+00
CGA:   2    -0.593380763182E+03   -0.68142E-04   -0.68131E-04  1200   0.586E-04 0.500E-06
CGA:   3    -0.593380778100E+03   -0.14918E-04   -0.14905E-04  1200   0.845E-05-0.174E-06
CGA:   4    -0.593380780318E+03   -0.22186E-05   -0.22165E-05  1200   0.153E-05-0.335E-07
CGA:   5    -0.593380780775E+03   -0.45649E-06   -0.45503E-06  1200   0.369E-06-0.585E-07
CGA:   6    -0.593380780882E+03   -0.10734E-06   -0.10761E-06  1200   0.871E-07 0.277E-07
CGA:   7    -0.593380780916E+03   -0.33916E-07   -0.33472E-07  1200   0.277E-07 0.104E-07
CGA:   8    -0.593380780930E+03   -0.14458E-07   -0.16906E-07  1200   0.210E-07-0.121E-07
  52 F= -.59338078E+03 E0= -.59338078E+03  d E =-.200973E-03
       N       E                     dE             d eps       ncg     rms          ort
SDA:   1    -0.593380589966E+03    0.19095E-03    0.00000E+00  1200   0.574E-03 0.000E+00
CGA:   2    -0.593380780082E+03   -0.19012E-03   -0.19012E-03  1200   0.175E-03-0.436E-06
CGA:   3    -0.593380825691E+03   -0.45610E-04   -0.45618E-04  1200   0.259E-04 0.135E-06
CGA:   4    -0.593380832422E+03   -0.67309E-05   -0.67322E-05  1200   0.497E-05 0.228E-07
CGA:   5    -0.593380833850E+03   -0.14279E-05   -0.14285E-05  1200   0.110E-05 0.226E-07
CGA:   6    -0.593380834233E+03   -0.38294E-06   -0.38241E-06  1200   0.323E-06 0.858E-08
CGA:   7    -0.593380834353E+03   -0.11946E-06   -0.11841E-06  1200   0.943E-07 0.182E-07
CGA:   8    -0.593380834390E+03   -0.37440E-07   -0.37505E-07  1200   0.258E-07 0.356E-09
  53 F= -.59338083E+03 E0= -.59338083E+03  d E =-.534599E-04
       N       E                     dE             d eps       ncg     rms          ort
SDA:   1    -0.593379241788E+03    0.15926E-02    0.00000E+00  1200   0.388E-02 0.000E+00
CGA:   2    -0.593380525371E+03   -0.12836E-02   -0.12836E-02  1200   0.118E-02-0.109E-05
CGA:   3    -0.593380833734E+03   -0.30836E-03   -0.30839E-03  1200   0.175E-03 0.376E-06
CGA:   4    -0.593380879242E+03   -0.45508E-04   -0.45512E-04  1200   0.337E-04 0.561E-07
CGA:   5    -0.593380888928E+03   -0.96857E-05   -0.96872E-05  1200   0.752E-05 0.586E-07
CGA:   6    -0.593380891530E+03   -0.26022E-05   -0.26013E-05  1200   0.221E-05 0.252E-07
CGA:   7    -0.593380892365E+03   -0.83530E-06   -0.83302E-06  1200   0.674E-06 0.473E-07
CGA:   8    -0.593380892619E+03   -0.25326E-06   -0.25297E-06  1200   0.172E-06 0.187E-08
  54 F= -.59338089E+03 E0= -.59338089E+03  d E =-.111688E-03
       N       E                     dE             d eps       ncg     rms          ort
SDA:   1    -0.593380584113E+03    0.30825E-03    0.00000E+00  1200   0.869E-03 0.000E+00
CGA:   2    -0.593380869738E+03   -0.28562E-03   -0.28563E-03  1200   0.261E-03-0.138E-05
CGA:   3    -0.593380937430E+03   -0.67692E-04   -0.67726E-04  1200   0.375E-04 0.540E-06
CGA:   4    -0.593380947285E+03   -0.98551E-05   -0.98565E-05  1200   0.716E-05 0.292E-07
CGA:   5    -0.593380949275E+03   -0.19898E-05   -0.19946E-05  1200   0.156E-05 0.120E-06
CGA:   6    -0.593380949823E+03   -0.54830E-06   -0.54821E-06  1200   0.463E-06-0.312E-08
CGA:   7    -0.593380949997E+03   -0.17396E-06   -0.17306E-06  1200   0.142E-06 0.143E-07
CGA:   8    -0.593380950047E+03   -0.50279E-07   -0.49869E-07  1200   0.342E-07 0.128E-07
  55 F= -.59338095E+03 E0= -.59338095E+03  d E =-.574284E-04
       N       E                     dE             d eps       ncg     rms          ort
SDA:   1    -0.593379097135E+03    0.18529E-02    0.00000E+00  1200   0.453E-02 0.000E+00
CGA:   2    -0.593380584310E+03   -0.14872E-02   -0.14872E-02  1200   0.136E-02-0.301E-05
CGA:   3    -0.593380937360E+03   -0.35305E-03   -0.35312E-03  1200   0.196E-03 0.125E-05
CGA:   4    -0.593380988770E+03   -0.51410E-04   -0.51413E-04  1200   0.376E-04 0.641E-07
CGA:   5    -0.593380999309E+03   -0.10539E-04   -0.10548E-04  1200   0.826E-05 0.278E-06
CGA:   6    -0.593381002153E+03   -0.28441E-05   -0.28440E-05  1200   0.239E-05-0.627E-08
CGA:   7    -0.593381003066E+03   -0.91291E-06   -0.91037E-06  1200   0.750E-06 0.349E-07
CGA:   8    -0.593381003336E+03   -0.27071E-06   -0.26940E-06  1200   0.185E-06 0.312E-07
  56 F= -.59338100E+03 E0= -.59338100E+03  d E =-.110718E-03
       N       E                     dE             d eps       ncg     rms          ort
SDA:   1    -0.593380657790E+03    0.34528E-03    0.00000E+00  1200   0.991E-03 0.000E+00
CGA:   2    -0.593380975023E+03   -0.31723E-03   -0.31723E-03  1200   0.297E-03-0.184E-05
CGA:   3    -0.593381052405E+03   -0.77382E-04   -0.77416E-04  1200   0.430E-04 0.580E-06
CGA:   4    -0.593381063602E+03   -0.11196E-04   -0.11199E-04  1200   0.814E-05 0.456E-07
CGA:   5    -0.593381065829E+03   -0.22277E-05   -0.22345E-05  1200   0.173E-05 0.170E-06
CGA:   6    -0.593381066441E+03   -0.61186E-06   -0.61167E-06  1200   0.510E-06-0.410E-08
CGA:   7    -0.593381066635E+03   -0.19352E-06   -0.19285E-06  1200   0.160E-06 0.113E-07
CGA:   8    -0.593381066690E+03   -0.55200E-07   -0.55412E-07  1200   0.377E-07 0.136E-07
  57 F= -.59338107E+03 E0= -.59338107E+03  d E =-.633534E-04
       N       E                     dE             d eps       ncg     rms          ort
SDA:   1    -0.593377504633E+03    0.35620E-02    0.00000E+00  1200   0.891E-02 0.000E+00
CGA:   2    -0.593380355013E+03   -0.28504E-02   -0.28504E-02  1200   0.266E-02-0.489E-05
CGA:   3    -0.593381052085E+03   -0.69707E-03   -0.69716E-03  1200   0.388E-03 0.170E-05
CGA:   4    -0.593381152888E+03   -0.10080E-03   -0.10081E-03  1200   0.738E-04 0.125E-06
CGA:   5    -0.593381173359E+03   -0.20471E-04   -0.20490E-04  1200   0.159E-04 0.523E-06
CGA:   6    -0.593381178820E+03   -0.54613E-05   -0.54617E-05  1200   0.452E-05-0.171E-07
CGA:   7    -0.593381180562E+03   -0.17414E-05   -0.17394E-05  1200   0.144E-05 0.333E-07
CGA:   8    -0.593381181080E+03   -0.51806E-06   -0.51555E-06  1200   0.352E-06 0.488E-07
  58 F= -.59338118E+03 E0= -.59338118E+03  d E =-.177743E-03
       N       E                     dE             d eps       ncg     rms          ort
SDA:   1    -0.593366363088E+03    0.14817E-01    0.00000E+00  1200   0.357E-01 0.000E+00
CGA:   2    -0.593377764430E+03   -0.11401E-01   -0.11401E-01  1200   0.106E-01-0.598E-05
CGA:   3    -0.593380553895E+03   -0.27895E-02   -0.27896E-02  1200   0.155E-02 0.304E-05
CGA:   4    -0.593380957057E+03   -0.40316E-03   -0.40318E-03  1200   0.295E-03 0.262E-06
CGA:   5    -0.593381039212E+03   -0.82155E-04   -0.82192E-04  1200   0.639E-04 0.104E-05
CGA:   6    -0.593381061067E+03   -0.21855E-04   -0.21855E-04  1200   0.181E-04-0.180E-07
CGA:   7    -0.593381068059E+03   -0.69927E-05   -0.69869E-05  1200   0.581E-05 0.818E-07
CGA:   8    -0.593381070165E+03   -0.21055E-05   -0.21012E-05  1200   0.144E-05 0.979E-07
  59 F= -.59338107E+03 E0= -.59338107E+03  d E =-.668285E-04
       N       E                     dE             d eps       ncg     rms          ort
SDA:   1    -0.593372934769E+03    0.81333E-02    0.00000E+00  1200   0.200E-01 0.000E+00
CGA:   2    -0.593379335026E+03   -0.64003E-02   -0.64003E-02  1200   0.598E-02 0.696E-05
CGA:   3    -0.593380904386E+03   -0.15694E-02   -0.15693E-02  1200   0.878E-03-0.229E-05
CGA:   4    -0.593381131521E+03   -0.22713E-03   -0.22712E-03  1200   0.168E-03-0.165E-06
CGA:   5    -0.593381178448E+03   -0.46927E-04   -0.46899E-04  1200   0.363E-04-0.794E-06
CGA:   6    -0.593381190600E+03   -0.12152E-04   -0.12150E-04  1200   0.995E-05 0.616E-07
CGA:   7    -0.593381194483E+03   -0.38824E-05   -0.38842E-05  1200   0.323E-05-0.282E-07
CGA:   8    -0.593381195676E+03   -0.11936E-05   -0.11971E-05  1200   0.842E-06-0.679E-07
  60 F= -.59338120E+03 E0= -.59338120E+03  d E =-.192340E-03
       N       E                     dE             d eps       ncg     rms          ort
SDA:   1    -0.593379927913E+03    0.12666E-02    0.00000E+00  1200   0.333E-02 0.000E+00
CGA:   2    -0.593380990751E+03   -0.10628E-02   -0.10628E-02  1200   0.963E-03 0.201E-06
CGA:   3    -0.593381247959E+03   -0.25721E-03   -0.25722E-03  1200   0.145E-03 0.300E-06
CGA:   4    -0.593381285427E+03   -0.37468E-04   -0.37469E-04  1200   0.282E-04 0.789E-08
CGA:   5    -0.593381293355E+03   -0.79282E-05   -0.79270E-05  1200   0.618E-05-0.290E-07
CGA:   6    -0.593381295441E+03   -0.20858E-05   -0.20839E-05  1200   0.171E-05 0.897E-07
CGA:   7    -0.593381296105E+03   -0.66371E-06   -0.65995E-06  1200   0.522E-06 0.640E-07
CGA:   8    -0.593381296307E+03   -0.20190E-06   -0.20198E-06  1200   0.141E-06-0.283E-08
  61 F= -.59338130E+03 E0= -.59338130E+03  d E =-.100631E-03
       N       E                     dE             d eps       ncg     rms          ort
SDA:   1    -0.593373650232E+03    0.76459E-02    0.00000E+00  1200   0.188E-01 0.000E+00
CGA:   2    -0.593379667861E+03   -0.60176E-02   -0.60176E-02  1200   0.545E-02 0.811E-06
CGA:   3    -0.593381124132E+03   -0.14563E-02   -0.14563E-02  1200   0.816E-03 0.751E-06
CGA:   4    -0.593381336012E+03   -0.21188E-03   -0.21188E-03  1200   0.158E-03 0.630E-07
CGA:   5    -0.593381380386E+03   -0.44374E-04   -0.44371E-04  1200   0.352E-04-0.841E-07
CGA:   6    -0.593381392380E+03   -0.11994E-04   -0.11987E-04  1200   0.998E-05 0.238E-06
CGA:   7    -0.593381396270E+03   -0.38895E-05   -0.38783E-05  1200   0.311E-05 0.165E-06
CGA:   8    -0.593381397433E+03   -0.11630E-05   -0.11632E-05  1200   0.805E-06-0.777E-08
  62 F= -.59338140E+03 E0= -.59338140E+03  d E =-.201756E-03
       N       E                     dE             d eps       ncg     rms          ort
SDA:   1    -0.593380385680E+03    0.10106E-02    0.00000E+00  1200   0.267E-02 0.000E+00
CGA:   2    -0.593381241877E+03   -0.85620E-03   -0.85620E-03  1200   0.773E-03-0.377E-07
CGA:   3    -0.593381449501E+03   -0.20762E-03   -0.20763E-03  1200   0.113E-03 0.657E-07
CGA:   4    -0.593381479218E+03   -0.29717E-04   -0.29717E-04  1200   0.218E-04-0.146E-07
CGA:   5    -0.593381485408E+03   -0.61895E-05   -0.61858E-05  1200   0.500E-05-0.117E-06
CGA:   6    -0.593381487098E+03   -0.16906E-05   -0.16897E-05  1200   0.141E-05 0.519E-07
CGA:   7    -0.593381487644E+03   -0.54629E-06   -0.54285E-06  1200   0.432E-06 0.519E-07
CGA:   8    -0.593381487815E+03   -0.17089E-06   -0.17185E-06  1200   0.120E-06-0.122E-07
  63 F= -.59338149E+03 E0= -.59338149E+03  d E =-.903828E-04
       N       E                     dE             d eps       ncg     rms          ort
SDA:   1    -0.593371728457E+03    0.97592E-02    0.00000E+00  1200   0.240E-01 0.000E+00
CGA:   2    -0.593379430465E+03   -0.77020E-02   -0.77020E-02  1200   0.695E-02-0.526E-07
CGA:   3    -0.593381298339E+03   -0.18679E-02   -0.18679E-02  1200   0.102E-02 0.318E-06
CGA:   4    -0.593381565675E+03   -0.26734E-03   -0.26733E-03  1200   0.198E-03-0.366E-07
CGA:   5    -0.593381621498E+03   -0.55823E-04   -0.55811E-04  1200   0.444E-04-0.350E-06
CGA:   6    -0.593381636657E+03   -0.15159E-04   -0.15155E-04  1200   0.126E-04 0.167E-06
CGA:   7    -0.593381641587E+03   -0.49300E-05   -0.49187E-05  1200   0.394E-05 0.162E-06
CGA:   8    -0.593381643063E+03   -0.14761E-05   -0.14771E-05  1200   0.101E-05-0.335E-07
  64 F= -.59338164E+03 E0= -.59338164E+03  d E =-.245630E-03
       N       E                     dE             d eps       ncg     rms          ort
SDA:   1    -0.593380087283E+03    0.15543E-02    0.00000E+00  1200   0.381E-02 0.000E+00
CGA:   2    -0.593381307298E+03   -0.12200E-02   -0.12200E-02  1200   0.110E-02-0.116E-07
CGA:   3    -0.593381603080E+03   -0.29578E-03   -0.29579E-03  1200   0.162E-03 0.105E-06
CGA:   4    -0.593381645402E+03   -0.42323E-04   -0.42321E-04  1200   0.310E-04-0.188E-07
CGA:   5    -0.593381654203E+03   -0.88011E-05   -0.87961E-05  1200   0.711E-05-0.139E-06
CGA:   6    -0.593381656613E+03   -0.24096E-05   -0.24083E-05  1200   0.201E-05 0.629E-07
CGA:   7    -0.593381657394E+03   -0.78151E-06   -0.77758E-06  1200   0.621E-06 0.615E-07
CGA:   8    -0.593381657637E+03   -0.24273E-06   -0.24380E-06  1200   0.170E-06-0.157E-07
  65 F= -.59338166E+03 E0= -.59338166E+03  d E =-.260205E-03
       N       E                     dE             d eps       ncg     rms          ort
SDA:   1    -0.593379057908E+03    0.25995E-02    0.00000E+00  1200   0.672E-02 0.000E+00
CGA:   2    -0.593381164927E+03   -0.21070E-02   -0.21070E-02  1200   0.194E-02 0.163E-05
CGA:   3    -0.593381684981E+03   -0.52005E-03   -0.52004E-03  1200   0.291E-03-0.356E-06
CGA:   4    -0.593381760286E+03   -0.75306E-04   -0.75302E-04  1200   0.545E-04-0.560E-07
CGA:   5    -0.593381775659E+03   -0.15373E-04   -0.15361E-04  1200   0.118E-04-0.299E-06
CGA:   6    -0.593381779586E+03   -0.39271E-05   -0.39248E-05  1200   0.320E-05 0.156E-06
CGA:   7    -0.593381780820E+03   -0.12335E-05   -0.12278E-05  1200   0.101E-05 0.874E-07
CGA:   8    -0.593381781213E+03   -0.39384E-06   -0.39565E-06  1200   0.290E-06-0.363E-07
  66 F= -.59338178E+03 E0= -.59338178E+03  d E =-.123576E-03
       N       E                     dE             d eps       ncg     rms          ort
SDA:   1    -0.593373579075E+03    0.82017E-02    0.00000E+00  1200   0.204E-01 0.000E+00
CGA:   2    -0.593379989554E+03   -0.64105E-02   -0.64105E-02  1200   0.591E-02 0.239E-05
CGA:   3    -0.593381571788E+03   -0.15822E-02   -0.15822E-02  1200   0.887E-03-0.511E-06
CGA:   4    -0.593381800980E+03   -0.22919E-03   -0.22918E-03  1200   0.166E-03-0.108E-06
CGA:   5    -0.593381847679E+03   -0.46700E-04   -0.46680E-04  1200   0.359E-04-0.524E-06
CGA:   6    -0.593381859690E+03   -0.12010E-04   -0.12005E-04  1200   0.982E-05 0.280E-06
CGA:   7    -0.593381863478E+03   -0.37887E-05   -0.37787E-05  1200   0.313E-05 0.156E-06
CGA:   8    -0.593381864659E+03   -0.11807E-05   -0.11839E-05  1200   0.855E-06-0.640E-07
  67 F= -.59338186E+03 E0= -.59338186E+03  d E =-.207022E-03
       N       E                     dE             d eps       ncg     rms          ort
SDA:   1    -0.593378453849E+03    0.34096E-02    0.00000E+00  1200   0.878E-02 0.000E+00
CGA:   2    -0.593381191502E+03   -0.27377E-02   -0.27377E-02  1200   0.249E-02 0.398E-06
CGA:   3    -0.593381865515E+03   -0.67401E-03   -0.67404E-03  1200   0.366E-03 0.517E-06
CGA:   4    -0.593381960901E+03   -0.95385E-04   -0.95387E-04  1200   0.694E-04 0.361E-07
CGA:   5    -0.593381980379E+03   -0.19479E-04   -0.19474E-04  1200   0.152E-04-0.127E-06
CGA:   6    -0.593381985497E+03   -0.51173E-05   -0.51140E-05  1200   0.418E-05 0.152E-06
CGA:   7    -0.593381987124E+03   -0.16274E-05   -0.16206E-05  1200   0.131E-05 0.105E-06
CGA:   8    -0.593381987628E+03   -0.50400E-06   -0.50500E-06  1200   0.359E-06-0.192E-07
  68 F= -.59338199E+03 E0= -.59338199E+03  d E =-.122969E-03
       N       E                     dE             d eps       ncg     rms          ort
SDA:   1    -0.593379282616E+03    0.27045E-02    0.00000E+00  1200   0.681E-02 0.000E+00
CGA:   2    -0.593381405030E+03   -0.21224E-02   -0.21224E-02  1200   0.193E-02 0.344E-06
CGA:   3    -0.593381927520E+03   -0.52249E-03   -0.52251E-03  1200   0.284E-03 0.455E-06
CGA:   4    -0.593382001464E+03   -0.73945E-04   -0.73946E-04  1200   0.539E-04 0.366E-07
CGA:   5    -0.593382016588E+03   -0.15123E-04   -0.15119E-04  1200   0.118E-04-0.113E-06
CGA:   6    -0.593382020551E+03   -0.39632E-05   -0.39607E-05  1200   0.324E-05 0.134E-06
CGA:   7    -0.593382021809E+03   -0.12586E-05   -0.12526E-05  1200   0.101E-05 0.920E-07
CGA:   8    -0.593382022200E+03   -0.39112E-06   -0.39191E-06  1200   0.279E-06-0.158E-07
  69 F= -.59338202E+03 E0= -.59338202E+03  d E =-.157541E-03
       N       E                     dE             d eps       ncg     rms          ort
SDA:   1    -0.593379718595E+03    0.23032E-02    0.00000E+00  1200   0.600E-02 0.000E+00
CGA:   2    -0.593381596724E+03   -0.18781E-02   -0.18781E-02  1200   0.170E-02-0.890E-06
CGA:   3    -0.593382060207E+03   -0.46348E-03   -0.46352E-03  1200   0.248E-03 0.795E-06
CGA:   4    -0.593382124879E+03   -0.64672E-04   -0.64676E-04  1200   0.473E-04 0.825E-07
CGA:   5    -0.593382138108E+03   -0.13229E-04   -0.13231E-04  1200   0.104E-04 0.338E-07
CGA:   6    -0.593382141620E+03   -0.35117E-05   -0.35101E-05  1200   0.288E-05 0.706E-07
CGA:   7    -0.593382142729E+03   -0.11093E-05   -0.11043E-05  1200   0.878E-06 0.808E-07
CGA:   8    -0.593382143066E+03   -0.33679E-06   -0.33685E-06  1200   0.233E-06-0.405E-08
  70 F= -.59338214E+03 E0= -.59338214E+03  d E =-.120866E-03
       N       E                     dE             d eps       ncg     rms          ort
SDA:   1    -0.593360572167E+03    0.21571E-01    0.00000E+00  1200   0.540E-01 0.000E+00
CGA:   2    -0.593377475932E+03   -0.16904E-01   -0.16904E-01  1200   0.153E-01-0.965E-06
CGA:   3    -0.593381649807E+03   -0.41739E-02   -0.41740E-02  1200   0.224E-02 0.245E-05
CGA:   4    -0.593382232042E+03   -0.58224E-03   -0.58225E-03  1200   0.427E-03 0.256E-06
CGA:   5    -0.593382351385E+03   -0.11934E-03   -0.11935E-03  1200   0.932E-04 0.798E-07
CGA:   6    -0.593382382999E+03   -0.31614E-04   -0.31609E-04  1200   0.259E-04 0.242E-06
CGA:   7    -0.593382393073E+03   -0.10074E-04   -0.10056E-04  1200   0.806E-05 0.262E-06
CGA:   8    -0.593382396062E+03   -0.29889E-05   -0.29895E-05  1200   0.206E-05-0.106E-07
  71 F= -.59338240E+03 E0= -.59338240E+03  d E =-.373862E-03
       N       E                     dE             d eps       ncg     rms          ort
SDA:   1    -0.593295067809E+03    0.87325E-01    0.00000E+00  1200   0.216E+00 0.000E+00
CGA:   2    -0.593362712713E+03   -0.67645E-01   -0.67645E-01  1200   0.614E-01 0.624E-05
CGA:   3    -0.593379418057E+03   -0.16705E-01   -0.16706E-01  1200   0.896E-02 0.563E-05
CGA:   4    -0.593381748773E+03   -0.23307E-02   -0.23307E-02  1200   0.171E-02 0.537E-06
CGA:   5    -0.593382226146E+03   -0.47737E-03   -0.47738E-03  1200   0.373E-03 0.953E-07
CGA:   6    -0.593382352736E+03   -0.12659E-03   -0.12658E-03  1200   0.104E-03 0.580E-06
CGA:   7    -0.593382393195E+03   -0.40459E-04   -0.40417E-04  1200   0.325E-04 0.588E-06
CGA:   8    -0.593382405154E+03   -0.11959E-04   -0.11960E-04  1200   0.823E-05-0.728E-08
CGA:   9    -0.593382408083E+03   -0.29289E-05   -0.29282E-05  1200   0.178E-05 0.166E-07
  72 F= -.59338241E+03 E0= -.59338241E+03  d E =-.385883E-03
       N       E                     dE             d eps       ncg     rms          ort
SDA:   1    -0.593362376934E+03    0.20028E-01    0.00000E+00  1200   0.498E-01 0.000E+00
CGA:   2    -0.593377946502E+03   -0.15570E-01   -0.15570E-01  1200   0.141E-01 0.262E-05
CGA:   3    -0.593381795235E+03   -0.38487E-02   -0.38486E-02  1200   0.207E-02-0.202E-05
CGA:   4    -0.593382333001E+03   -0.53777E-03   -0.53775E-03  1200   0.394E-03-0.217E-06
CGA:   5    -0.593382443500E+03   -0.11050E-03   -0.11050E-03  1200   0.859E-04-0.764E-07
CGA:   6    -0.593382472678E+03   -0.29179E-04   -0.29182E-04  1200   0.239E-04-0.147E-06
CGA:   7    -0.593382482022E+03   -0.93435E-05   -0.93585E-05  1200   0.756E-05-0.203E-06
CGA:   8    -0.593382484724E+03   -0.27019E-05   -0.27008E-05  1200   0.184E-05 0.284E-07
  73 F= -.59338248E+03 E0= -.59338248E+03  d E =-.462523E-03
       N       E                     dE             d eps       ncg     rms          ort
SDA:   1    -0.593369708090E+03    0.12774E-01    0.00000E+00  1200   0.316E-01 0.000E+00
CGA:   2    -0.593379684162E+03   -0.99761E-02   -0.99761E-02  1200   0.901E-02 0.625E-06
CGA:   3    -0.593382127236E+03   -0.24431E-02   -0.24432E-02  1200   0.134E-02 0.161E-05
CGA:   4    -0.593382474385E+03   -0.34715E-03   -0.34717E-03  1200   0.255E-03 0.343E-06
CGA:   5    -0.593382545923E+03   -0.71539E-04   -0.71533E-04  1200   0.555E-04-0.138E-06
CGA:   6    -0.593382564555E+03   -0.18632E-04   -0.18628E-04  1200   0.152E-04 0.255E-06
CGA:   7    -0.593382570448E+03   -0.58929E-05   -0.58791E-05  1200   0.466E-05 0.212E-06
CGA:   8    -0.593382572198E+03   -0.17505E-05   -0.17513E-05  1200   0.121E-05-0.171E-07
  74 F= -.59338257E+03 E0= -.59338257E+03  d E =-.874749E-04
       N       E                     dE             d eps       ncg     rms          ort
SDA:   1    -0.593381640851E+03    0.92960E-03    0.00000E+00  1200   0.232E-02 0.000E+00
CGA:   2    -0.593382374133E+03   -0.73328E-03   -0.73328E-03  1200   0.663E-03 0.938E-08
CGA:   3    -0.593382553886E+03   -0.17975E-03   -0.17973E-03  1200   0.989E-04-0.386E-06
CGA:   4    -0.593382579461E+03   -0.25575E-04   -0.25568E-04  1200   0.191E-04-0.968E-07
CGA:   5    -0.593382584757E+03   -0.52959E-05   -0.52977E-05  1200   0.404E-05 0.371E-07
CGA:   6    -0.593382586143E+03   -0.13864E-05   -0.13884E-05  1200   0.114E-05-0.622E-07
CGA:   7    -0.593382586592E+03   -0.44881E-06   -0.45366E-06  1200   0.372E-06-0.548E-07
CGA:   8    -0.593382586715E+03   -0.12308E-06   -0.12275E-06  1200   0.832E-07 0.763E-08
  75 F= -.59338259E+03 E0= -.59338259E+03  d E =-.101991E-03
       N       E                     dE             d eps       ncg     rms          ort
SDA:   1    -0.593382027816E+03    0.55878E-03    0.00000E+00  1200   0.149E-02 0.000E+00
CGA:   2    -0.593382500071E+03   -0.47225E-03   -0.47225E-03  1200   0.435E-03-0.678E-06
CGA:   3    -0.593382616834E+03   -0.11676E-03   -0.11678E-03  1200   0.619E-04 0.316E-06
CGA:   4    -0.593382632850E+03   -0.16016E-04   -0.16021E-04  1200   0.119E-04 0.779E-07
CGA:   5    -0.593382636177E+03   -0.33268E-05   -0.33271E-05  1200   0.258E-05 0.852E-08
CGA:   6    -0.593382637058E+03   -0.88143E-06   -0.88154E-06  1200   0.727E-06-0.694E-08
CGA:   7    -0.593382637329E+03   -0.27088E-06   -0.26876E-06  1200   0.210E-06 0.383E-07
CGA:   8    -0.593382637410E+03   -0.81299E-07   -0.81099E-07  1200   0.552E-07 0.805E-08
  76 F= -.59338264E+03 E0= -.59338264E+03  d E =-.506957E-04
       N       E                     dE             d eps       ncg     rms          ort
SDA:   1    -0.593377245044E+03    0.53923E-02    0.00000E+00  1200   0.134E-01 0.000E+00
CGA:   2    -0.593381494978E+03   -0.42499E-02   -0.42499E-02  1200   0.392E-02-0.167E-05
CGA:   3    -0.593382546465E+03   -0.10515E-02   -0.10515E-02  1200   0.557E-03 0.943E-06
CGA:   4    -0.593382690873E+03   -0.14441E-03   -0.14442E-03  1200   0.107E-03 0.231E-06
CGA:   5    -0.593382720719E+03   -0.29845E-04   -0.29846E-04  1200   0.233E-04 0.199E-07
CGA:   6    -0.593382728682E+03   -0.79631E-05   -0.79635E-05  1200   0.659E-05-0.112E-07
CGA:   7    -0.593382731223E+03   -0.25416E-05   -0.25335E-05  1200   0.203E-05 0.125E-06
CGA:   8    -0.593382731983E+03   -0.75999E-06   -0.75884E-06  1200   0.519E-06 0.229E-07
  77 F= -.59338273E+03 E0= -.59338273E+03  d E =-.145269E-03
       N       E                     dE             d eps       ncg     rms          ort
SDA:   1    -0.593360718531E+03    0.22013E-01    0.00000E+00  1200   0.536E-01 0.000E+00
CGA:   2    -0.593377717119E+03   -0.16999E-01   -0.16999E-01  1200   0.157E-01-0.162E-05
CGA:   3    -0.593381923394E+03   -0.42063E-02   -0.42064E-02  1200   0.223E-02 0.182E-05
CGA:   4    -0.593382501244E+03   -0.57785E-03   -0.57788E-03  1200   0.427E-03 0.456E-06
CGA:   5    -0.593382620629E+03   -0.11939E-03   -0.11939E-03  1200   0.934E-04 0.223E-07
CGA:   6    -0.593382652514E+03   -0.31885E-04   -0.31885E-04  1200   0.264E-04 0.147E-08
CGA:   7    -0.593382662781E+03   -0.10267E-04   -0.10248E-04  1200   0.825E-05 0.271E-06
CGA:   8    -0.593382665845E+03   -0.30640E-05   -0.30620E-05  1200   0.210E-05 0.461E-07
  78 F= -.59338267E+03 E0= -.59338267E+03  d E =-.791302E-04
       N       E                     dE             d eps       ncg     rms          ort
SDA:   1    -0.593372070257E+03    0.10593E-01    0.00000E+00  1200   0.261E-01 0.000E+00
CGA:   2    -0.593380339172E+03   -0.82689E-02   -0.82689E-02  1200   0.762E-02 0.271E-05
CGA:   3    -0.593382386357E+03   -0.20472E-02   -0.20471E-02  1200   0.109E-02-0.117E-05
CGA:   4    -0.593382667603E+03   -0.28125E-03   -0.28123E-03  1200   0.210E-03-0.291E-06
CGA:   5    -0.593382726015E+03   -0.58412E-04   -0.58411E-04  1200   0.451E-04-0.206E-07
CGA:   6    -0.593382741345E+03   -0.15330E-04   -0.15328E-04  1200   0.126E-04 0.608E-07
CGA:   7    -0.593382746328E+03   -0.49827E-05   -0.49942E-05  1200   0.406E-05-0.151E-06
CGA:   8    -0.593382747790E+03   -0.14621E-05   -0.14625E-05  1200   0.100E-05-0.168E-07
  79 F= -.59338275E+03 E0= -.59338275E+03  d E =-.161075E-03
       N       E                     dE             d eps       ncg     rms          ort
SDA:   1    -0.593382603561E+03    0.14277E-03    0.00000E+00  1200   0.428E-03 0.000E+00
CGA:   2    -0.593382738152E+03   -0.13459E-03   -0.13459E-03  1200   0.124E-03-0.167E-07
CGA:   3    -0.593382771172E+03   -0.33020E-04   -0.33019E-04  1200   0.178E-04-0.142E-07
CGA:   4    -0.593382775724E+03   -0.45515E-05   -0.45528E-05  1200   0.343E-05 0.175E-07
CGA:   5    -0.593382776672E+03   -0.94851E-06   -0.94792E-06  1200   0.686E-06-0.383E-08
CGA:   6    -0.593382776901E+03   -0.22899E-06   -0.22948E-06  1200   0.181E-06 0.534E-09
CGA:   7    -0.593382776967E+03   -0.65842E-07   -0.65319E-07  1200   0.506E-07 0.119E-07
CGA:   8    -0.593382776987E+03   -0.19430E-07   -0.19636E-07  1200   0.134E-07 0.245E-08
  80 F= -.59338278E+03 E0= -.59338278E+03  d E =-.291968E-04
       N       E                     dE             d eps       ncg     rms          ort
SDA:   1    -0.593381273514E+03    0.15035E-02    0.00000E+00  1200   0.385E-02 0.000E+00
CGA:   2    -0.593382485685E+03   -0.12122E-02   -0.12122E-02  1200   0.112E-02 0.404E-07
CGA:   3    -0.593382782420E+03   -0.29673E-03   -0.29673E-03  1200   0.159E-03-0.415E-07
CGA:   4    -0.593382823296E+03   -0.40877E-04   -0.40881E-04  1200   0.297E-04 0.636E-07
CGA:   5    -0.593382831543E+03   -0.82467E-05   -0.82459E-05  1200   0.622E-05-0.145E-07
CGA:   6    -0.593382833637E+03   -0.20943E-05   -0.20936E-05  1200   0.169E-05 0.129E-07
CGA:   7    -0.593382834278E+03   -0.64107E-06   -0.63778E-06  1200   0.515E-06 0.474E-07
CGA:   8    -0.593382834473E+03   -0.19504E-06   -0.19478E-06  1200   0.136E-06 0.867E-08
  81 F= -.59338283E+03 E0= -.59338283E+03  d E =-.866835E-04
       N       E                     dE             d eps       ncg     rms          ort
SDA:   1    -0.593376577642E+03    0.62566E-02    0.00000E+00  1200   0.154E-01 0.000E+00
CGA:   2    -0.593381426072E+03   -0.48484E-02   -0.48484E-02  1200   0.447E-02 0.188E-06
CGA:   3    -0.593382612820E+03   -0.11867E-02   -0.11867E-02  1200   0.635E-03-0.327E-07
CGA:   4    -0.593382776369E+03   -0.16355E-03   -0.16356E-03  1200   0.119E-03 0.130E-06
CGA:   5    -0.593382809333E+03   -0.32964E-04   -0.32963E-04  1200   0.249E-04-0.330E-07
CGA:   6    -0.593382817722E+03   -0.83888E-05   -0.83874E-05  1200   0.680E-05 0.313E-07
CGA:   7    -0.593382820319E+03   -0.25971E-05   -0.25907E-05  1200   0.212E-05 0.992E-07
CGA:   8    -0.593382821107E+03   -0.78842E-06   -0.78759E-06  1200   0.552E-06 0.171E-07
  82 F= -.59338282E+03 E0= -.59338282E+03  d E =-.733176E-04
       N       E                     dE             d eps       ncg     rms          ort
SDA:   1    -0.593380774220E+03    0.20461E-02    0.00000E+00  1200   0.512E-02 0.000E+00
CGA:   2    -0.593382385876E+03   -0.16117E-02   -0.16117E-02  1200   0.149E-02 0.118E-06
CGA:   3    -0.593382780387E+03   -0.39451E-03   -0.39451E-03  1200   0.211E-03 0.540E-07
CGA:   4    -0.593382834768E+03   -0.54381E-04   -0.54377E-04  1200   0.399E-04-0.681E-07
CGA:   5    -0.593382845796E+03   -0.11027E-04   -0.11028E-04  1200   0.820E-05 0.185E-07
CGA:   6    -0.593382848565E+03   -0.27689E-05   -0.27689E-05  1200   0.222E-05-0.336E-08
CGA:   7    -0.593382849438E+03   -0.87363E-06   -0.87726E-06  1200   0.727E-06-0.503E-07
CGA:   8    -0.593382849696E+03   -0.25765E-06   -0.25808E-06  1200   0.181E-06-0.584E-08
  83 F= -.59338285E+03 E0= -.59338285E+03  d E =-.101906E-03
       N       E                     dE             d eps       ncg     rms          ort
SDA:   1    -0.593382742582E+03    0.10686E-03    0.00000E+00  1200   0.322E-03 0.000E+00
CGA:   2    -0.593382843864E+03   -0.10128E-03   -0.10128E-03  1200   0.941E-04 0.346E-07
CGA:   3    -0.593382868663E+03   -0.24799E-04   -0.24794E-04  1200   0.132E-04-0.852E-07
CGA:   4    -0.593382872078E+03   -0.34145E-05   -0.34154E-05  1200   0.249E-05 0.105E-07
CGA:   5    -0.593382872766E+03   -0.68885E-06   -0.68882E-06  1200   0.503E-06 0.407E-08
CGA:   6    -0.593382872935E+03   -0.16829E-06   -0.16806E-06  1200   0.131E-06 0.402E-08
CGA:   7    -0.593382872983E+03   -0.48660E-07   -0.48535E-07  1200   0.379E-07 0.650E-08
CGA:   8    -0.593382872998E+03   -0.14581E-07   -0.14345E-07  1200   0.980E-08 0.204E-08
  84 F= -.59338287E+03 E0= -.59338287E+03  d E =-.233020E-04
       N       E                     dE             d eps       ncg     rms          ort
SDA:   1    -0.593381742525E+03    0.11305E-02    0.00000E+00  1200   0.290E-02 0.000E+00
CGA:   2    -0.593382654626E+03   -0.91210E-03   -0.91210E-03  1200   0.848E-03 0.167E-06
CGA:   3    -0.593382877724E+03   -0.22310E-03   -0.22308E-03  1200   0.119E-03-0.258E-06
CGA:   4    -0.593382908487E+03   -0.30763E-04   -0.30765E-04  1200   0.221E-04 0.292E-07
CGA:   5    -0.593382914605E+03   -0.61178E-05   -0.61180E-05  1200   0.456E-05 0.108E-07
CGA:   6    -0.593382916136E+03   -0.15318E-05   -0.15315E-05  1200   0.121E-05 0.147E-07
CGA:   7    -0.593382916597E+03   -0.46092E-06   -0.45936E-06  1200   0.369E-06 0.214E-07
CGA:   8    -0.593382916735E+03   -0.13732E-06   -0.13705E-06  1200   0.950E-07 0.741E-08
  85 F= -.59338292E+03 E0= -.59338292E+03  d E =-.670386E-04
       N       E                     dE             d eps       ncg     rms          ort
SDA:   1    -0.593378191858E+03    0.47247E-02    0.00000E+00  1200   0.116E-01 0.000E+00
CGA:   2    -0.593381839838E+03   -0.36480E-02   -0.36480E-02  1200   0.339E-02 0.588E-06
CGA:   3    -0.593382731893E+03   -0.89205E-03   -0.89202E-03  1200   0.474E-03-0.516E-06
CGA:   4    -0.593382854960E+03   -0.12307E-03   -0.12307E-03  1200   0.883E-04 0.552E-07
CGA:   5    -0.593382879426E+03   -0.24466E-04   -0.24466E-04  1200   0.183E-04 0.169E-07
CGA:   6    -0.593382885568E+03   -0.61422E-05   -0.61415E-05  1200   0.485E-05 0.343E-07
CGA:   7    -0.593382887428E+03   -0.18605E-05   -0.18578E-05  1200   0.150E-05 0.445E-07
CGA:   8    -0.593382887984E+03   -0.55600E-06   -0.55557E-06  1200   0.387E-06 0.141E-07
  86 F= -.59338289E+03 E0= -.59338289E+03  d E =-.382883E-04
       N       E                     dE             d eps       ncg     rms          ort
SDA:   1    -0.593380723192E+03    0.21642E-02    0.00000E+00  1200   0.543E-02 0.000E+00
CGA:   2    -0.593382433200E+03   -0.17100E-02   -0.17100E-02  1200   0.159E-02-0.104E-06
CGA:   3    -0.593382851181E+03   -0.41798E-03   -0.41800E-03  1200   0.222E-03 0.376E-06
CGA:   4    -0.593382908871E+03   -0.57690E-04   -0.57688E-04  1200   0.417E-04-0.405E-07
CGA:   5    -0.593382920407E+03   -0.11536E-04   -0.11535E-04  1200   0.851E-05-0.171E-07
CGA:   6    -0.593382923266E+03   -0.28596E-05   -0.28604E-05  1200   0.224E-05-0.138E-07
CGA:   7    -0.593382924136E+03   -0.86971E-06   -0.87155E-06  1200   0.708E-06-0.257E-07
CGA:   8    -0.593382924393E+03   -0.25730E-06   -0.25798E-06  1200   0.181E-06-0.755E-08
  87 F= -.59338292E+03 E0= -.59338292E+03  d E =-.746971E-04
       N       E                     dE             d eps       ncg     rms          ort
SDA:   1    -0.593382738468E+03    0.18567E-03    0.00000E+00  1200   0.523E-03 0.000E+00
CGA:   2    -0.593382904704E+03   -0.16624E-03   -0.16624E-03  1200   0.154E-03-0.123E-06
CGA:   3    -0.593382945328E+03   -0.40624E-04   -0.40620E-04  1200   0.215E-04-0.587E-07
CGA:   4    -0.593382950889E+03   -0.55606E-05   -0.55616E-05  1200   0.408E-05 0.954E-08
CGA:   5    -0.593382952024E+03   -0.11357E-05   -0.11346E-05  1200   0.840E-06-0.294E-07
CGA:   6    -0.593382952302E+03   -0.27771E-06   -0.27743E-06  1200   0.216E-06 0.153E-08
CGA:   7    -0.593382952379E+03   -0.77193E-07   -0.76704E-07  1200   0.598E-07 0.174E-07
CGA:   8    -0.593382952402E+03   -0.23198E-07   -0.22766E-07  1200   0.157E-07 0.589E-08
  88 F= -.59338295E+03 E0= -.59338295E+03  d E =-.280093E-04
       N       E                     dE             d eps       ncg     rms          ort
SDA:   1    -0.593381083450E+03    0.18689E-02    0.00000E+00  1200   0.471E-02 0.000E+00
CGA:   2    -0.593382579849E+03   -0.14964E-02   -0.14964E-02  1200   0.139E-02-0.250E-06
CGA:   3    -0.593382945384E+03   -0.36553E-03   -0.36552E-03  1200   0.193E-03-0.187E-06
CGA:   4    -0.593382995459E+03   -0.50075E-04   -0.50077E-04  1200   0.362E-04 0.254E-07
CGA:   5    -0.593383005511E+03   -0.10051E-04   -0.10048E-04  1200   0.754E-05-0.888E-07
CGA:   6    -0.593383008033E+03   -0.25224E-05   -0.25224E-05  1200   0.199E-05 0.461E-08
CGA:   7    -0.593383008780E+03   -0.74712E-06   -0.74394E-06  1200   0.600E-06 0.570E-07
CGA:   8    -0.593383009006E+03   -0.22549E-06   -0.22429E-06  1200   0.156E-06 0.176E-07
  89 F= -.59338301E+03 E0= -.59338301E+03  d E =-.846124E-04
       N       E                     dE             d eps       ncg     rms          ort
SDA:   1    -0.593375300584E+03    0.77082E-02    0.00000E+00  1200   0.188E-01 0.000E+00
CGA:   2    -0.593381285053E+03   -0.59845E-02   -0.59845E-02  1200   0.556E-02 0.476E-07
CGA:   3    -0.593382746889E+03   -0.14618E-02   -0.14618E-02  1200   0.772E-03-0.396E-06
CGA:   4    -0.593382947203E+03   -0.20031E-03   -0.20032E-03  1200   0.145E-03 0.504E-07
CGA:   5    -0.593382987346E+03   -0.40144E-04   -0.40137E-04  1200   0.302E-04-0.185E-06
CGA:   6    -0.593382997452E+03   -0.10106E-04   -0.10106E-04  1200   0.798E-05 0.172E-07
CGA:   7    -0.593383000486E+03   -0.30342E-05   -0.30267E-05  1200   0.247E-05 0.121E-06
CGA:   8    -0.593383001403E+03   -0.91614E-06   -0.91476E-06  1200   0.642E-06 0.325E-07
  90 F= -.59338300E+03 E0= -.59338300E+03  d E =-.770095E-04
[...]
SDA:   1    -0.593383313620E+03    0.50476E-03    0.00000E+00  1200   0.132E-02 0.000E+00
CGA:   2    -0.593383730473E+03   -0.41685E-03   -0.41685E-03  1200   0.377E-03-0.215E-06
CGA:   3    -0.593383830956E+03   -0.10048E-03   -0.10047E-03  1200   0.541E-04-0.186E-06
CGA:   4    -0.593383844953E+03   -0.13997E-04   -0.14008E-04  1200   0.104E-04 0.189E-06
CGA:   5    -0.593383847826E+03   -0.28731E-05   -0.28765E-05  1200   0.216E-05 0.828E-07
CGA:   6    -0.593383848618E+03   -0.79213E-06   -0.79739E-06  1200   0.681E-06-0.103E-06
CGA:   7    -0.593383848852E+03   -0.23437E-06   -0.23373E-06  1200   0.194E-06 0.126E-07
CGA:   8    -0.593383848915E+03   -0.62892E-07   -0.62763E-07  1200   0.424E-07 0.282E-07
 120 F= -.59338385E+03 E0= -.59338385E+03  d E =-.297403E-04
       N       E                     dE             d eps       ncg     rms          ort
SDA:   1    -0.593380437782E+03    0.34111E-02    0.00000E+00  1200   0.848E-02 0.000E+00
CGA:   2    -0.593383118389E+03   -0.26806E-02   -0.26806E-02  1200   0.242E-02-0.444E-06
CGA:   3    -0.593383762923E+03   -0.64453E-03   -0.64451E-03  1200   0.348E-03-0.464E-06
CGA:   4    -0.593383853060E+03   -0.90137E-04   -0.90166E-04  1200   0.679E-04 0.478E-06
CGA:   5    -0.593383871808E+03   -0.18749E-04   -0.18757E-04  1200   0.139E-04 0.205E-06
CGA:   6    -0.593383876734E+03   -0.49260E-05   -0.49352E-05  1200   0.406E-05-0.248E-06
CGA:   7    -0.593383878222E+03   -0.14873E-05   -0.14858E-05  1200   0.123E-05 0.247E-07
CGA:   8    -0.593383878651E+03   -0.42905E-06   -0.42704E-06  1200   0.276E-06 0.765E-07
 121 F= -.59338388E+03 E0= -.59338388E+03  d E =-.594760E-04
       N       E                     dE             d eps       ncg     rms          ort
SDA:   1    -0.593383073760E+03    0.80446E-03    0.00000E+00  1200   0.210E-02 0.000E+00
CGA:   2    -0.593383724341E+03   -0.65058E-03   -0.65058E-03  1200   0.600E-03-0.111E-06
CGA:   3    -0.593383885219E+03   -0.16088E-03   -0.16087E-03  1200   0.867E-04-0.112E-06
CGA:   4    -0.593383907762E+03   -0.22543E-04   -0.22558E-04  1200   0.170E-04 0.243E-06
CGA:   5    -0.593383912433E+03   -0.46713E-05   -0.46812E-05  1200   0.349E-05 0.226E-06
CGA:   6    -0.593383913715E+03   -0.12816E-05   -0.12861E-05  1200   0.108E-05-0.974E-07
CGA:   7    -0.593383914106E+03   -0.39140E-06   -0.39158E-06  1200   0.329E-06-0.585E-08
CGA:   8    -0.593383914213E+03   -0.10709E-06   -0.10739E-06  1200   0.707E-07 0.313E-07
 122 F= -.59338391E+03 E0= -.59338391E+03  d E =-.355625E-04
       N       E                     dE             d eps       ncg     rms          ort
SDA:   1    -0.593376825721E+03    0.70884E-02    0.00000E+00  1200   0.178E-01 0.000E+00
CGA:   2    -0.593382347122E+03   -0.55214E-02   -0.55214E-02  1200   0.509E-02 0.634E-07
CGA:   3    -0.593383710216E+03   -0.13631E-02   -0.13631E-02  1200   0.737E-03-0.312E-06
CGA:   4    -0.593383901740E+03   -0.19152E-03   -0.19157E-03  1200   0.146E-03 0.700E-06
CGA:   5    -0.593383941978E+03   -0.40238E-04   -0.40265E-04  1200   0.300E-04 0.654E-06
CGA:   6    -0.593383952620E+03   -0.10642E-04   -0.10653E-04  1200   0.874E-05-0.274E-06
CGA:   7    -0.593383955885E+03   -0.32646E-05   -0.32664E-05  1200   0.273E-05-0.249E-07
CGA:   8    -0.593383956840E+03   -0.95509E-06   -0.95233E-06  1200   0.619E-06 0.999E-07
 123 F= -.59338396E+03 E0= -.59338396E+03  d E =-.781893E-04
       N       E                     dE             d eps       ncg     rms          ort
SDA:   1    -0.593382044458E+03    0.19114E-02    0.00000E+00  1200   0.486E-02 0.000E+00
CGA:   2    -0.593383550296E+03   -0.15058E-02   -0.15058E-02  1200   0.140E-02-0.261E-06
CGA:   3    -0.593383928371E+03   -0.37808E-03   -0.37807E-03  1200   0.204E-03-0.530E-07
CGA:   4    -0.593383981671E+03   -0.53300E-04   -0.53317E-04  1200   0.410E-04 0.299E-06
CGA:   5    -0.593383992953E+03   -0.11282E-04   -0.11300E-04  1200   0.856E-05 0.424E-06
CGA:   6    -0.593383996060E+03   -0.31066E-05   -0.31133E-05  1200   0.261E-05-0.149E-06
CGA:   7    -0.593383997025E+03   -0.96557E-06   -0.96733E-06  1200   0.822E-06-0.329E-07
CGA:   8    -0.593383997299E+03   -0.27357E-06   -0.27252E-06  1200   0.178E-06 0.520E-07
 124 F= -.59338400E+03 E0= -.59338400E+03  d E =-.404590E-04
       N       E                     dE             d eps       ncg     rms          ort
SDA:   1    -0.593383610252E+03    0.38677E-03    0.00000E+00  1200   0.974E-03 0.000E+00
CGA:   2    -0.593383912013E+03   -0.30176E-03   -0.30176E-03  1200   0.282E-03-0.163E-06
CGA:   3    -0.593383987781E+03   -0.75769E-04   -0.75768E-04  1200   0.409E-04-0.195E-07
CGA:   4    -0.593383998445E+03   -0.10664E-04   -0.10672E-04  1200   0.817E-05 0.135E-06
CGA:   5    -0.593384000673E+03   -0.22275E-05   -0.22357E-05  1200   0.168E-05 0.188E-06
CGA:   6    -0.593384001308E+03   -0.63506E-06   -0.63892E-06  1200   0.550E-06-0.677E-07
CGA:   7    -0.593384001504E+03   -0.19657E-06   -0.19749E-06  1200   0.170E-06-0.128E-07
CGA:   8    -0.593384001555E+03   -0.51115E-07   -0.51586E-07  1200   0.355E-07 0.210E-07
 125 F= -.59338400E+03 E0= -.59338400E+03  d E =-.447153E-04
       N       E                     dE             d eps       ncg     rms          ort
SDA:   1    -0.593383562187E+03    0.43932E-03    0.00000E+00  1200   0.114E-02 0.000E+00
CGA:   2    -0.593383917670E+03   -0.35548E-03   -0.35549E-03  1200   0.333E-03 0.107E-05
CGA:   3    -0.593384007472E+03   -0.89802E-04   -0.89773E-04  1200   0.472E-04-0.575E-06
CGA:   4    -0.593384019843E+03   -0.12371E-04   -0.12375E-04  1200   0.945E-05 0.774E-07
CGA:   5    -0.593384022494E+03   -0.26516E-05   -0.26514E-05  1200   0.205E-05-0.104E-07
CGA:   6    -0.593384023220E+03   -0.72559E-06   -0.72694E-06  1200   0.607E-06-0.276E-07
CGA:   7    -0.593384023446E+03   -0.22599E-06   -0.22615E-06  1200   0.187E-06-0.109E-08
CGA:   8    -0.593384023509E+03   -0.63119E-07   -0.63222E-07  1200   0.406E-07 0.133E-07
 126 F= -.59338402E+03 E0= -.59338402E+03  d E =-.219538E-04
       N       E                     dE             d eps       ncg     rms          ort
SDA:   1    -0.593382917801E+03    0.11056E-02    0.00000E+00  1200   0.276E-02 0.000E+00
CGA:   2    -0.593383779893E+03   -0.86209E-03   -0.86211E-03  1200   0.807E-03 0.167E-05
CGA:   3    -0.593383997444E+03   -0.21755E-03   -0.21750E-03  1200   0.114E-03-0.889E-06
CGA:   4    -0.593384027434E+03   -0.29990E-04   -0.29996E-04  1200   0.229E-04 0.114E-06
CGA:   5    -0.593384033850E+03   -0.64157E-05   -0.64152E-05  1200   0.496E-05-0.169E-07
CGA:   6    -0.593384035597E+03   -0.17471E-05   -0.17485E-05  1200   0.145E-05-0.388E-07
CGA:   7    -0.593384036143E+03   -0.54590E-06   -0.54580E-06  1200   0.453E-06-0.101E-08
CGA:   8    -0.593384036299E+03   -0.15663E-06   -0.15573E-06  1200   0.100E-06 0.241E-07
 127 F= -.59338404E+03 E0= -.59338404E+03  d E =-.347440E-04
       N       E                     dE             d eps       ncg     rms          ort
SDA:   1    -0.593383799197E+03    0.23695E-03    0.00000E+00  1200   0.638E-03 0.000E+00
CGA:   2    -0.593383997298E+03   -0.19810E-03   -0.19811E-03  1200   0.187E-03 0.458E-06
CGA:   3    -0.593384047194E+03   -0.49896E-04   -0.49867E-04  1200   0.261E-04-0.502E-06
CGA:   4    -0.593384053986E+03   -0.67924E-05   -0.67946E-05  1200   0.511E-05 0.387E-07
CGA:   5    -0.593384055423E+03   -0.14372E-05   -0.14341E-05  1200   0.111E-05-0.716E-07
CGA:   6    -0.593384055807E+03   -0.38351E-06   -0.38450E-06  1200   0.322E-06-0.277E-07
CGA:   7    -0.593384055923E+03   -0.11598E-06   -0.11558E-06  1200   0.961E-07 0.325E-08
CGA:   8    -0.593384055956E+03   -0.32746E-07   -0.32340E-07  1200   0.209E-07 0.954E-08
 128 F= -.59338406E+03 E0= -.59338406E+03  d E =-.196563E-04
       N       E                     dE             d eps       ncg     rms          ort
SDA:   1    -0.593381777192E+03    0.22787E-02    0.00000E+00  1200   0.573E-02 0.000E+00
CGA:   2    -0.593383560165E+03   -0.17830E-02   -0.17830E-02  1200   0.168E-02 0.143E-05
CGA:   3    -0.593384007437E+03   -0.44727E-03   -0.44719E-03  1200   0.235E-03-0.149E-05
CGA:   4    -0.593384068591E+03   -0.61154E-04   -0.61160E-04  1200   0.465E-04 0.112E-06
CGA:   5    -0.593384081469E+03   -0.12878E-04   -0.12869E-04  1200   0.978E-05-0.217E-06
CGA:   6    -0.593384084852E+03   -0.33839E-05   -0.33864E-05  1200   0.279E-05-0.804E-07
CGA:   7    -0.593384085890E+03   -0.10372E-05   -0.10365E-05  1200   0.864E-06 0.865E-08
CGA:   8    -0.593384086198E+03   -0.30839E-06   -0.30740E-06  1200   0.199E-06 0.310E-07
 129 F= -.59338409E+03 E0= -.59338409E+03  d E =-.498987E-04
       N       E                     dE             d eps       ncg     rms          ort
SDA:   1    -0.593383992765E+03    0.93125E-04    0.00000E+00  1200   0.235E-03 0.000E+00
CGA:   2    -0.593384065527E+03   -0.72762E-04   -0.72766E-04  1200   0.688E-04 0.277E-06
CGA:   3    -0.593384083938E+03   -0.18411E-04   -0.18394E-04  1200   0.960E-05-0.302E-06
CGA:   4    -0.593384086436E+03   -0.24977E-05   -0.24987E-05  1200   0.185E-05 0.220E-07
CGA:   5    -0.593384086964E+03   -0.52874E-06   -0.52733E-06  1200   0.421E-06-0.440E-07
CGA:   6    -0.593384087109E+03   -0.14469E-06   -0.14554E-06  1200   0.126E-06-0.164E-07
CGA:   7    -0.593384087153E+03   -0.44362E-07   -0.44455E-07  1200   0.381E-07-0.482E-09
CGA:   8    -0.593384087165E+03   -0.11702E-07   -0.11743E-07  1200   0.794E-08 0.566E-08
 130 F= -.59338409E+03 E0= -.59338409E+03  d E =-.508659E-04
       N       E                     dE             d eps       ncg     rms          ort
SDA:   1    -0.593383935692E+03    0.15146E-03    0.00000E+00  1200   0.402E-03 0.000E+00
CGA:   2    -0.593384062833E+03   -0.12714E-03   -0.12714E-03  1200   0.121E-03-0.203E-06
CGA:   3    -0.593384094319E+03   -0.31487E-04   -0.31487E-04  1200   0.167E-04 0.259E-08
CGA:   4    -0.593384098663E+03   -0.43437E-05   -0.43484E-05  1200   0.320E-05 0.765E-07
CGA:   5    -0.593384099535E+03   -0.87231E-06   -0.87501E-06  1200   0.646E-06 0.544E-07
CGA:   6    -0.593384099777E+03   -0.24157E-06   -0.24452E-06  1200   0.214E-06-0.497E-07
CGA:   7    -0.593384099845E+03   -0.67570E-07   -0.67501E-07  1200   0.574E-07 0.588E-08
CGA:   8    -0.593384099861E+03   -0.16229E-07   -0.16746E-07  1200   0.132E-07 0.136E-07
 131 F= -.59338410E+03 E0= -.59338410E+03  d E =-.126957E-04
       N       E                     dE             d eps       ncg     rms          ort
SDA:   1    -0.593383758891E+03    0.34095E-03    0.00000E+00  1200   0.852E-03 0.000E+00
CGA:   2    -0.593384028128E+03   -0.26924E-03   -0.26924E-03  1200   0.256E-03-0.296E-06
CGA:   3    -0.593384094780E+03   -0.66652E-04   -0.66652E-04  1200   0.353E-04 0.437E-08
CGA:   4    -0.593384103997E+03   -0.92167E-05   -0.92226E-05  1200   0.681E-05 0.116E-06
CGA:   5    -0.593384105861E+03   -0.18640E-05   -0.18671E-05  1200   0.138E-05 0.815E-07
CGA:   6    -0.593384106364E+03   -0.50291E-06   -0.50714E-06  1200   0.431E-06-0.710E-07
CGA:   7    -0.593384106509E+03   -0.14491E-06   -0.14454E-06  1200   0.122E-06 0.684E-08
CGA:   8    -0.593384106546E+03   -0.37337E-07   -0.37368E-07  1200   0.268E-07 0.225E-07
 132 F= -.59338411E+03 E0= -.59338411E+03  d E =-.193807E-04
       N       E                     dE             d eps       ncg     rms          ort
SDA:   1    -0.593384040781E+03    0.65728E-04    0.00000E+00  1200   0.186E-03 0.000E+00
CGA:   2    -0.593384099350E+03   -0.58569E-04   -0.58568E-04  1200   0.556E-04-0.416E-07
CGA:   3    -0.593384113881E+03   -0.14531E-04   -0.14531E-04  1200   0.759E-05-0.272E-08
CGA:   4    -0.593384115857E+03   -0.19760E-05   -0.19791E-05  1200   0.145E-05 0.642E-07
CGA:   5    -0.593384116246E+03   -0.38883E-06   -0.39119E-06  1200   0.289E-06 0.547E-07
CGA:   6    -0.593384116359E+03   -0.11324E-06   -0.11504E-06  1200   0.102E-06-0.244E-07
CGA:   7    -0.593384116391E+03   -0.31920E-07   -0.31889E-07  1200   0.270E-07 0.280E-08
CGA:   8    -0.593384116398E+03   -0.70113E-08   -0.72516E-08  1200   0.664E-08 0.809E-08
 133 F= -.59338412E+03 E0= -.59338412E+03  d E =-.985181E-05
       N       E                     dE             d eps       ncg     rms          ort
SDA:   1    -0.593383458317E+03    0.65807E-03    0.00000E+00  1200   0.167E-02 0.000E+00
CGA:   2    -0.593383985240E+03   -0.52692E-03   -0.52692E-03  1200   0.499E-03-0.106E-06
CGA:   3    -0.593384115795E+03   -0.13055E-03   -0.13055E-03  1200   0.682E-04-0.495E-08
CGA:   4    -0.593384133644E+03   -0.17849E-04   -0.17857E-04  1200   0.132E-04 0.189E-06
CGA:   5    -0.593384137254E+03   -0.36099E-05   -0.36151E-05  1200   0.269E-05 0.171E-06
CGA:   6    -0.593384138223E+03   -0.96897E-06   -0.97305E-06  1200   0.805E-06-0.763E-07
CGA:   7    -0.593384138510E+03   -0.28677E-06   -0.28653E-06  1200   0.237E-06 0.463E-08
CGA:   8    -0.593384138587E+03   -0.77417E-07   -0.77119E-07  1200   0.514E-07 0.287E-07
 134 F= -.59338414E+03 E0= -.59338414E+03  d E =-.320412E-04
       N       E                     dE             d eps       ncg     rms          ort
SDA:   1    -0.593381430503E+03    0.27080E-02    0.00000E+00  1200   0.668E-02 0.000E+00
CGA:   2    -0.593383538099E+03   -0.21076E-02   -0.21076E-02  1200   0.200E-02-0.138E-06
CGA:   3    -0.593384060477E+03   -0.52238E-03   -0.52238E-03  1200   0.273E-03-0.738E-08
CGA:   4    -0.593384131997E+03   -0.71520E-04   -0.71538E-04  1200   0.530E-04 0.374E-06
CGA:   5    -0.593384146515E+03   -0.14518E-04   -0.14529E-04  1200   0.109E-04 0.336E-06
CGA:   6    -0.593384150345E+03   -0.38297E-05   -0.38358E-05  1200   0.313E-05-0.149E-06
CGA:   7    -0.593384151492E+03   -0.11474E-05   -0.11466E-05  1200   0.951E-06 0.961E-08
CGA:   8    -0.593384151823E+03   -0.33078E-06   -0.32889E-06  1200   0.215E-06 0.584E-07
 135 F= -.59338415E+03 E0= -.59338415E+03  d E =-.452768E-04
       N       E                     dE             d eps       ncg     rms          ort
SDA:   1    -0.593383977045E+03    0.17445E-03    0.00000E+00  1200   0.460E-03 0.000E+00
CGA:   2    -0.593384122774E+03   -0.14573E-03   -0.14573E-03  1200   0.137E-03-0.200E-06
CGA:   3    -0.593384158618E+03   -0.35843E-04   -0.35842E-04  1200   0.186E-04-0.421E-07
CGA:   4    -0.593384163500E+03   -0.48825E-05   -0.48871E-05  1200   0.359E-05 0.892E-07
CGA:   5    -0.593384164477E+03   -0.97682E-06   -0.97993E-06  1200   0.750E-06 0.740E-07
CGA:   6    -0.593384164758E+03   -0.28100E-06   -0.28456E-06  1200   0.248E-06-0.464E-07
CGA:   7    -0.593384164842E+03   -0.83740E-07   -0.83732E-07  1200   0.706E-07-0.692E-09
CGA:   8    -0.593384164862E+03   -0.20195E-07   -0.20736E-07  1200   0.152E-07 0.133E-07
 136 F= -.59338416E+03 E0= -.59338416E+03  d E =-.130393E-04
       N       E                     dE             d eps       ncg     rms          ort
SDA:   1    -0.593382503946E+03    0.16609E-02    0.00000E+00  1200   0.413E-02 0.000E+00
CGA:   2    -0.593383814559E+03   -0.13106E-02   -0.13106E-02  1200   0.123E-02-0.502E-06
CGA:   3    -0.593384136070E+03   -0.32151E-03   -0.32151E-03  1200   0.168E-03-0.101E-06
CGA:   4    -0.593384180070E+03   -0.44000E-04   -0.44014E-04  1200   0.330E-04 0.261E-06
CGA:   5    -0.593384189078E+03   -0.90078E-05   -0.90164E-05  1200   0.684E-05 0.228E-06
CGA:   6    -0.593384191497E+03   -0.24193E-05   -0.24255E-05  1200   0.200E-05-0.128E-06
CGA:   7    -0.593384192226E+03   -0.72921E-06   -0.72999E-06  1200   0.604E-06-0.677E-08
CGA:   8    -0.593384192431E+03   -0.20478E-06   -0.20408E-06  1200   0.133E-06 0.414E-07
 137 F= -.59338419E+03 E0= -.59338419E+03  d E =-.406084E-04
       N       E                     dE             d eps       ncg     rms          ort
SDA:   1    -0.593377440489E+03    0.67517E-02    0.00000E+00  1200   0.165E-01 0.000E+00
CGA:   2    -0.593382683140E+03   -0.52427E-02   -0.52427E-02  1200   0.491E-02-0.731E-06
CGA:   3    -0.593383969238E+03   -0.12861E-02   -0.12861E-02  1200   0.670E-03-0.203E-06
CGA:   4    -0.593384145386E+03   -0.17615E-03   -0.17617E-03  1200   0.132E-03 0.512E-06
CGA:   5    -0.593384181542E+03   -0.36156E-04   -0.36173E-04  1200   0.276E-04 0.448E-06
CGA:   6    -0.593384191152E+03   -0.96095E-05   -0.96190E-05  1200   0.786E-05-0.244E-06
CGA:   7    -0.593384194066E+03   -0.29145E-05   -0.29149E-05  1200   0.241E-05-0.923E-08
CGA:   8    -0.593384194916E+03   -0.84968E-06   -0.84640E-06  1200   0.552E-06 0.890E-07
 138 F= -.59338419E+03 E0= -.59338419E+03  d E =-.430931E-04
       N       E                     dE             d eps       ncg     rms          ort
SDA:   1    -0.593382760833E+03    0.14332E-02    0.00000E+00  1200   0.352E-02 0.000E+00
CGA:   2    -0.593383879969E+03   -0.11191E-02   -0.11191E-02  1200   0.105E-02 0.553E-06
CGA:   3    -0.593384154087E+03   -0.27412E-03   -0.27412E-03  1200   0.143E-03 0.106E-06
CGA:   4    -0.593384191755E+03   -0.37669E-04   -0.37656E-04  1200   0.286E-04-0.229E-06
CGA:   5    -0.593384199631E+03   -0.78757E-05   -0.78680E-05  1200   0.596E-05-0.211E-06
CGA:   6    -0.593384201609E+03   -0.19780E-05   -0.19751E-05  1200   0.156E-05 0.119E-06
CGA:   7    -0.593384202212E+03   -0.60282E-06   -0.60166E-06  1200   0.494E-06 0.155E-07
CGA:   8    -0.593384202407E+03   -0.19499E-06   -0.19866E-06  1200   0.143E-06-0.442E-07
 139 F= -.59338420E+03 E0= -.59338420E+03  d E =-.505839E-04
       N       E                     dE             d eps       ncg     rms          ort
SDA:   1    -0.593384050436E+03    0.15178E-03    0.00000E+00  1200   0.416E-03 0.000E+00
CGA:   2    -0.593384181920E+03   -0.13148E-03   -0.13148E-03  1200   0.127E-03 0.740E-07
CGA:   3    -0.593384215103E+03   -0.33183E-04   -0.33167E-04  1200   0.182E-04-0.260E-06
CGA:   4    -0.593384219847E+03   -0.47438E-05   -0.47448E-05  1200   0.355E-05 0.182E-07
CGA:   5    -0.593384220855E+03   -0.10083E-05   -0.10077E-05  1200   0.748E-06-0.253E-07
CGA:   6    -0.593384221121E+03   -0.26554E-06   -0.26743E-06  1200   0.228E-06-0.349E-07
CGA:   7    -0.593384221198E+03   -0.77442E-07   -0.77433E-07  1200   0.631E-07 0.318E-08
CGA:   8    -0.593384221218E+03   -0.19802E-07   -0.19844E-07  1200   0.137E-07 0.974E-08
 140 F= -.59338422E+03 E0= -.59338422E+03  d E =-.188112E-04
       N       E                     dE             d eps       ncg     rms          ort
SDA:   1    -0.593383819939E+03    0.40126E-03    0.00000E+00  1200   0.101E-02 0.000E+00
CGA:   2    -0.593384137438E+03   -0.31750E-03   -0.31750E-03  1200   0.307E-03 0.109E-06
CGA:   3    -0.593384217615E+03   -0.80177E-04   -0.80153E-04  1200   0.438E-04-0.409E-06
CGA:   4    -0.593384229056E+03   -0.11441E-04   -0.11443E-04  1200   0.845E-05 0.323E-07
CGA:   5    -0.593384231456E+03   -0.23996E-05   -0.23989E-05  1200   0.181E-05-0.406E-07
CGA:   6    -0.593384232093E+03   -0.63703E-06   -0.63919E-06  1200   0.537E-06-0.519E-07
CGA:   7    -0.593384232283E+03   -0.18966E-06   -0.18948E-06  1200   0.156E-06 0.596E-08
CGA:   8    -0.593384232335E+03   -0.51979E-07   -0.51743E-07  1200   0.347E-07 0.163E-07
 141 F= -.59338423E+03 E0= -.59338423E+03  d E =-.299279E-04
       N       E                     dE             d eps       ncg     rms          ort
SDA:   1    -0.593384131236E+03    0.10105E-03    0.00000E+00  1200   0.281E-03 0.000E+00
CGA:   2    -0.593384219414E+03   -0.88178E-04   -0.88182E-04  1200   0.867E-04 0.855E-06
CGA:   3    -0.593384242017E+03   -0.22604E-04   -0.22572E-04  1200   0.126E-04-0.530E-06
CGA:   4    -0.593384245272E+03   -0.32547E-05   -0.32508E-05  1200   0.236E-05-0.733E-07
CGA:   5    -0.593384245964E+03   -0.69185E-06   -0.68990E-06  1200   0.543E-06-0.118E-06
CGA:   6    -0.593384246127E+03   -0.16345E-06   -0.16345E-06  1200   0.132E-06 0.126E-07
CGA:   7    -0.593384246175E+03   -0.47573E-07   -0.47176E-07  1200   0.385E-07 0.107E-07
CGA:   8    -0.593384246192E+03   -0.17083E-07   -0.17393E-07  1200   0.136E-07-0.333E-08
 142 F= -.59338425E+03 E0= -.59338425E+03  d E =-.138573E-04
