
Lmod is automatically replacing "cce/11.0.4" with "gcc/10.2.0".


Lmod is automatically replacing "PrgEnv-cray/8.0.0" with "PrgEnv-gnu/8.0.0".


Lmod is automatically replacing "craype-network-ofi" with "craype-network-ucx".


Inactive Modules:
  1) cray-mpich


Lmod is automatically replacing "craype-network-ucx" with "craype-network-ofi".


Inactive Modules:
  1) cray-mpich-ucx/8.1.9

Activating Modules:
  1) cray-mpich/8.1.4

 ----------------------------------------------------
    OOO  PPPP  EEEEE N   N M   M PPPP
   O   O P   P E     NN  N MM MM P   P
   O   O PPPP  EEEEE N N N M M M PPPP   -- VERSION
   O   O P     E     N  NN M   M P
    OOO  P     EEEEE N   N M   M P
 ----------------------------------------------------
 running   64 mpi-ranks, with    1 threads/rank
 distrk:  each k-point on   32 cores,    2 groups
 distr:  one band on    4 cores,    8 groups
 vasp.6.3.1 04May22 (build May 25 2022 13:42:54) complex                         
 POSCAR found type information on POSCAR C H I N Sn
 POSCAR found :  5 types and      48 ions
 scaLAPACK will be used
 -----------------------------------------------------------------------------
|                                                                             |
|               ----> ADVICE to this user running VASP <----                  |
|                                                                             |
|     You have a (more or less) 'large supercell' and for larger cells it     |
|     might be more efficient to use real-space projection operators.         |
|     Therefore, try LREAL= Auto in the INCAR file.                           |
|     Mind: For very accurate calculation, you might also keep the            |
|     reciprocal projection scheme (i.e. LREAL=.FALSE.).                      |
|                                                                             |
 -----------------------------------------------------------------------------

 WARNING: PSMAXN for non-local potential too small
 LDA part: xc-table for Pade appr. of Perdew
 POSCAR, INCAR and KPOINTS ok, starting setup
 FFT: planning ... GRIDC
 FFT: planning ... GRID_SOFT
 FFT: planning ... GRID
 WAVECAR not read
 entering main loop
       N       E                     dE             d eps       ncg     rms          ort
DAV:   1     0.799716515683E+03    0.79972E+03   -0.92004E+04  1200   0.163E+03
DAV:   2    -0.477438913273E+03   -0.12772E+04   -0.12260E+04  1200   0.256E+02
DAV:   3    -0.639821448979E+03   -0.16238E+03   -0.16088E+03  1200   0.102E+02
DAV:   4    -0.644497823271E+03   -0.46764E+01   -0.46411E+01  1200   0.193E+01
DAV:   5    -0.644641885601E+03   -0.14406E+00   -0.14394E+00  1200   0.315E+00
 gam= 0.000 g(H,U,f)=  0.593E+02 0.942E+01 0.291E+01 ort(H,U,f) = 0.000E+00 0.000E+00 0.000E+00
SDA:   6    -0.579869012867E+03    0.64773E+02   -0.14394E+00  1200   0.716E+02 0.000E+00
 gam= 0.000 trial= 0.400  step= 0.324 mean= 0.400
 gam= 0.064 g(H,U,f)=  0.357E+01 0.104E+01 0.871E-19 ort(H,U,f) = 0.115E-01 0.272E+01-0.308E-18
CGA:   7    -0.591214632874E+03   -0.11346E+02   -0.11590E+02  1200   0.460E+01 0.273E+01
 gam= 0.064 trial= 0.396  step= 0.626 mean= 0.396
 gam= 0.328 g(H,U,f)=  0.125E+01 0.255E+00 0.944E-17 ort(H,U,f) =-0.548E+00 0.564E+00 0.364E-17
CGA:   8    -0.592714879441E+03   -0.15002E+01   -0.14970E+01  1200   0.151E+01 0.155E-01
 gam= 0.328 trial= 0.408  step= 0.605 mean= 0.408
 gam= 0.301 g(H,U,f)=  0.382E+00 0.726E-01 0.921E-13 ort(H,U,f) =-0.218E+00 0.222E+00 0.117E-12
CGA:   9    -0.593173180970E+03   -0.45830E+00   -0.45796E+00  1200   0.455E+00 0.346E-02
 gam= 0.301 trial= 0.418  step= 0.610 mean= 0.418
 gam= 0.270 g(H,U,f)=  0.106E+00 0.167E-01 0.889E-13 ort(H,U,f) =-0.653E-01 0.656E-01 0.185E-12
CGA:  10    -0.593312094120E+03   -0.13891E+00   -0.13887E+00  1200   0.123E+00 0.247E-03
 gam= 0.270 trial= 0.427  step= 0.718 mean= 0.427
 gam= 0.287 g(H,U,f)=  0.329E-01 0.229E-02 0.174E-38 ort(H,U,f) =-0.116E-01 0.113E-01 0.000E+00
CGA:  11    -0.593356109175E+03   -0.44015E-01   -0.44047E-01  1200   0.352E-01-0.258E-03
 gam= 0.287 trial= 0.442  step= 0.636 mean= 0.442
 gam= 0.208 g(H,U,f)=  0.690E-02 0.437E-03 0.135E-15 ort(H,U,f) =-0.185E-02 0.183E-02 0.368E-15
CGA:  12    -0.593367282855E+03   -0.11174E-01   -0.11176E-01  1200   0.734E-02-0.136E-04
 gam= 0.208 trial= 0.451  step= 0.732 mean= 0.451
 gam= 0.248 g(H,U,f)=  0.173E-02 0.896E-04-0.206E-27 ort(H,U,f) =-0.278E-03 0.247E-03-0.568E-27
CGA:  13    -0.593369961768E+03   -0.26789E-02   -0.26835E-02  1200   0.182E-02-0.313E-04
 gam= 0.248 trial= 0.465  step= 0.725 mean= 0.465
 gam= 0.219 g(H,U,f)=  0.377E-03 0.217E-04 0.865E-15 ort(H,U,f) =-0.412E-04 0.428E-04 0.309E-14
CGA:  14    -0.593370618255E+03   -0.65649E-03   -0.65630E-03  1200   0.399E-03 0.165E-05
 gam= 0.219 trial= 0.478  step= 0.754 mean= 0.478
 gam= 0.236 g(H,U,f)=  0.882E-04 0.600E-05 0.386E-17 ort(H,U,f) =-0.358E-05 0.142E-04 0.163E-16
CGA:  15    -0.593370770046E+03   -0.15179E-03   -0.15033E-03  1200   0.942E-04 0.106E-04
 gam= 0.236 trial= 0.492  step= 0.821 mean= 0.492
 gam= 0.260 g(H,U,f)=  0.227E-04 0.177E-05 0.728E-20 ort(H,U,f) =-0.302E-05 0.400E-05 0.424E-19
CGA:  16    -0.593370809900E+03   -0.39854E-04   -0.39690E-04  1200   0.245E-04 0.978E-06
 gam= 0.260 trial= 0.509  step= 0.851 mean= 0.509
 gam= 0.242 g(H,U,f)=  0.571E-05 0.229E-06 0.689E-25 ort(H,U,f) =-0.916E-06 0.650E-06-0.137E-22
CGA:  17    -0.593370820383E+03   -0.10483E-04   -0.10528E-04  1200   0.593E-05-0.267E-06
 gam= 0.242 trial= 0.526  step= 0.751 mean= 0.526
 gam= 0.234 g(H,U,f)=  0.133E-05 0.616E-07 0.499E-23 ort(H,U,f) = 0.613E-06 0.111E-06-0.131E-22
CGA:  18    -0.593370822670E+03   -0.22867E-05   -0.22047E-05  1200   0.139E-05 0.724E-06
 gam= 0.234 trial= 0.537  step= 0.771 mean= 0.537
 final diagonalization
   1 F= -.59337082E+03 E0= -.59337082E+03  d E =-.593371E+03
 curvature:   0.00 expect dE= 0.000E+00 dE for cont linesearch  0.000E+00
 trial: gam= 0.00000 g(F)=  0.954E-03 g(S)=  0.000E+00 ort = 0.000E+00 (trialstep = 0.100E+01)
 search vector abs. value=  0.954E-03
 bond charge predicted
 wavefunctions rotated
       N       E                     dE             d eps       ncg     rms          ort
 gam= 0.000 g(H,U,f)=  0.227E-01 0.164E-03 0.231E-49 ort(H,U,f) = 0.000E+00 0.000E+00 0.000E+00
SDA:   1    -0.593359700872E+03    0.11120E-01    0.00000E+00  1200   0.229E-01 0.000E+00
 gam= 0.000 trial= 0.549  step= 0.693 mean= 0.549
 gam= 0.347 g(H,U,f)=  0.769E-02 0.257E-03 0.161E-31 ort(H,U,f) = 0.173E-03-0.188E-03-0.108E-31
CGA:   2    -0.593367635730E+03   -0.79349E-02   -0.79360E-02  1200   0.795E-02-0.157E-04
 gam= 0.347 trial= 0.556  step= 0.516 mean= 0.556
 gam= 0.148 g(H,U,f)=  0.113E-02 0.514E-04 0.414E-51 ort(H,U,f) =-0.454E-04 0.475E-04 0.000E+00
CGA:   3    -0.593369684423E+03   -0.20487E-02   -0.20487E-02  1200   0.118E-02 0.204E-05
 gam= 0.148 trial= 0.554  step= 0.510 mean= 0.554
 gam= 0.181 g(H,U,f)=  0.203E-03 0.103E-04-0.528E-33 ort(H,U,f) =-0.232E-04 0.239E-04-0.589E-33
CGA:   4    -0.593369985100E+03   -0.30068E-03   -0.30069E-03  1200   0.213E-03 0.732E-06
 gam= 0.181 trial= 0.552  step= 0.578 mean= 0.552
 gam= 0.238 g(H,U,f)=  0.454E-04 0.526E-05 0.181E-25 ort(H,U,f) =-0.106E-04 0.998E-05 0.143E-25
CGA:   5    -0.593370046734E+03   -0.61634E-04   -0.61642E-04  1200   0.507E-04-0.590E-06
 gam= 0.238 trial= 0.553  step= 0.673 mean= 0.553
 gam= 0.309 g(H,U,f)=  0.139E-04 0.174E-05 0.362E-27 ort(H,U,f) =-0.424E-05 0.412E-05 0.434E-26
CGA:   6    -0.593370063733E+03   -0.17000E-04   -0.17007E-04  1200   0.156E-04-0.124E-06
 gam= 0.309 trial= 0.559  step= 0.752 mean= 0.559
 gam= 0.306 g(H,U,f)=  0.452E-05 0.267E-06 0.789E-27 ort(H,U,f) =-0.805E-06 0.105E-05 0.376E-26
CGA:   7    -0.593370069626E+03   -0.58926E-05   -0.58688E-05  1200   0.479E-05 0.247E-06
 gam= 0.306 trial= 0.569  step= 0.716 mean= 0.569
 gam= 0.246 g(H,U,f)=  0.114E-05 0.333E-07 0.191E-25 ort(H,U,f) =-0.300E-07 0.193E-06 0.139E-25
CGA:   8    -0.593370071381E+03   -0.17545E-05   -0.17423E-05  1200   0.118E-05 0.163E-06
 gam= 0.246 trial= 0.576  step= 0.722 mean= 0.576
 final diagonalization
   2 F= -.59337007E+03 E0= -.59337007E+03  d E =0.751289E-03
 trial-energy change:    0.000751  1 .order    0.000755   -0.000954    0.002464
 step:   0.2791(harm=  0.2791)  dis= 0.00059  next Energy=  -593.370956 (dE=-0.133E-03)
 bond charge predicted
 wavefunctions rotated
       N       E                     dE             d eps       ncg     rms          ort
 gam= 0.000 g(H,U,f)=  0.118E-01 0.848E-04 0.249E-22 ort(H,U,f) = 0.000E+00 0.000E+00 0.000E+00
SDA:   1    -0.593365568069E+03    0.45016E-02    0.00000E+00  1200   0.119E-01 0.000E+00
 gam= 0.000 trial= 0.583  step= 0.692 mean= 0.583
 gam= 0.346 g(H,U,f)=  0.399E-02 0.131E-03 0.221E-22 ort(H,U,f) = 0.107E-03-0.968E-04-0.235E-22
CGA:   2    -0.593369690358E+03   -0.41223E-02   -0.41217E-02  1200   0.412E-02 0.990E-05
 gam= 0.346 trial= 0.589  step= 0.517 mean= 0.589
 gam= 0.150 g(H,U,f)=  0.591E-03 0.264E-04 0.145E-23 ort(H,U,f) =-0.255E-04 0.240E-04 0.398E-23
CGA:   3    -0.593370755804E+03   -0.10654E-02   -0.10654E-02  1200   0.617E-03-0.142E-05
 gam= 0.150 trial= 0.585  step= 0.508 mean= 0.585
 gam= 0.182 g(H,U,f)=  0.107E-03 0.528E-05 0.229E-23 ort(H,U,f) =-0.127E-04 0.123E-04 0.304E-23
CGA:   4    -0.593370912613E+03   -0.15681E-03   -0.15679E-03  1200   0.112E-03-0.465E-06
 gam= 0.182 trial= 0.581  step= 0.572 mean= 0.581
 gam= 0.232 g(H,U,f)=  0.233E-04 0.273E-05 0.589E-23 ort(H,U,f) =-0.472E-05 0.516E-05 0.561E-23
CGA:   5    -0.593370944709E+03   -0.32096E-04   -0.32098E-04  1200   0.260E-04 0.438E-06
 gam= 0.232 trial= 0.581  step= 0.670 mean= 0.581
 gam= 0.307 g(H,U,f)=  0.707E-05 0.928E-06 0.479E-24 ort(H,U,f) =-0.201E-05 0.215E-05 0.268E-23
CGA:   6    -0.593370953469E+03   -0.87597E-05   -0.87537E-05  1200   0.800E-05 0.138E-06
 gam= 0.307 trial= 0.585  step= 0.782 mean= 0.585
 gam= 0.330 g(H,U,f)=  0.250E-05 0.135E-06 0.395E-24 ort(H,U,f) =-0.669E-06 0.526E-06 0.164E-23
CGA:   7    -0.593370956601E+03   -0.31318E-05   -0.31462E-05  1200   0.264E-05-0.143E-06
 gam= 0.330 trial= 0.595  step= 0.753 mean= 0.595
 gam= 0.262 g(H,U,f)=  0.680E-06 0.116E-07 0.395E-23 ort(H,U,f) =-0.183E-06 0.727E-07 0.401E-23
CGA:   8    -0.593370957568E+03   -0.96711E-06   -0.97581E-06  1200   0.692E-06-0.110E-06
 gam= 0.262 trial= 0.603  step= 0.677 mean= 0.603
 final diagonalization
   3 F= -.59337096E+03 E0= -.59337096E+03  d E =-.134898E-03
 curvature:  -0.14 expect dE=-0.599E-04 dE for cont linesearch -0.429E-09
 trial: gam= 0.44797 g(F)=  0.429E-03 g(S)=  0.000E+00 ort = 0.171E-05 (trialstep = 0.856E+00)
 search vector abs. value=  0.622E-03
 bond charge predicted
 wavefunctions rotated
       N       E                     dE             d eps       ncg     rms          ort
 gam= 0.000 g(H,U,f)=  0.712E-02 0.640E-04 0.337E-18 ort(H,U,f) = 0.000E+00 0.000E+00 0.000E+00
SDA:   1    -0.593367949824E+03    0.30068E-02    0.00000E+00  1200   0.718E-02 0.000E+00
 gam= 0.000 trial= 0.607  step= 0.662 mean= 0.607
 gam= 0.333 g(H,U,f)=  0.233E-02 0.683E-04 0.554E-18 ort(H,U,f) = 0.440E-04-0.579E-04-0.466E-18
CGA:   2    -0.593370327232E+03   -0.23774E-02   -0.23778E-02  1200   0.239E-02-0.139E-04
 gam= 0.333 trial= 0.610  step= 0.514 mean= 0.610
 gam= 0.143 g(H,U,f)=  0.326E-03 0.152E-04 0.206E-20 ort(H,U,f) =-0.922E-05 0.110E-04-0.248E-19
CGA:   3    -0.593370941312E+03   -0.61408E-03   -0.61416E-03  1200   0.342E-03 0.181E-05
 gam= 0.143 trial= 0.605  step= 0.512 mean= 0.605
 gam= 0.188 g(H,U,f)=  0.601E-04 0.420E-05 0.788E-23 ort(H,U,f) =-0.729E-05 0.806E-05 0.510E-22
CGA:   4    -0.593371028809E+03   -0.87498E-04   -0.87533E-04  1200   0.643E-04 0.766E-06
 gam= 0.188 trial= 0.600  step= 0.564 mean= 0.600
 gam= 0.221 g(H,U,f)=  0.122E-04 0.200E-05 0.127E-20 ort(H,U,f) =-0.315E-05 0.380E-05 0.259E-21
CGA:   5    -0.593371046962E+03   -0.18152E-04   -0.18164E-04  1200   0.142E-04 0.657E-06
 gam= 0.221 trial= 0.598  step= 0.708 mean= 0.598
 gam= 0.327 g(H,U,f)=  0.405E-05 0.594E-06 0.135E-22 ort(H,U,f) =-0.193E-05 0.145E-05-0.169E-21
CGA:   6    -0.593371052007E+03   -0.50455E-05   -0.50723E-05  1200   0.465E-05-0.487E-06
 gam= 0.327 trial= 0.604  step= 0.764 mean= 0.604
 gam= 0.312 g(H,U,f)=  0.136E-05 0.825E-07 0.905E-23 ort(H,U,f) =-0.427E-06 0.360E-06-0.440E-22
CGA:   7    -0.593371053715E+03   -0.17079E-05   -0.17133E-05  1200   0.145E-05-0.676E-07
 gam= 0.312 trial= 0.612  step= 0.649 mean= 0.612
 gam= 0.220 g(H,U,f)=  0.309E-06 0.869E-08 0.191E-22 ort(H,U,f) = 0.108E-06 0.561E-07-0.835E-23
CGA:   8    -0.593371054181E+03   -0.46568E-06   -0.46278E-06  1200   0.318E-06 0.164E-06
 gam= 0.220 trial= 0.614  step= 0.686 mean= 0.614
 final diagonalization
   4 F= -.59337105E+03 E0= -.59337105E+03  d E =-.966131E-04
 trial-energy change:   -0.000097  1 .order   -0.000094   -0.000368    0.000180
 step:   0.5742(harm=  0.5742)  dis= 0.00070  next Energy=  -593.371081 (dE=-0.123E-03)
 bond charge predicted
 wavefunctions rotated
       N       E                     dE             d eps       ncg     rms          ort
 gam= 0.000 g(H,U,f)=  0.770E-03 0.686E-05 0.459E-18 ort(H,U,f) = 0.000E+00 0.000E+00 0.000E+00
SDA:   1    -0.593370748452E+03    0.30526E-03    0.00000E+00  1200   0.777E-03 0.000E+00
 gam= 0.000 trial= 0.617  step= 0.657 mean= 0.617
 gam= 0.329 g(H,U,f)=  0.249E-03 0.721E-05 0.599E-18 ort(H,U,f) = 0.107E-04-0.614E-05-0.512E-18
CGA:   2    -0.593371004027E+03   -0.25558E-03   -0.25548E-03  1200   0.256E-03 0.459E-05
 gam= 0.329 trial= 0.619  step= 0.519 mean= 0.619
 gam= 0.146 g(H,U,f)=  0.357E-04 0.161E-05 0.361E-20 ort(H,U,f) =-0.170E-05 0.114E-05-0.365E-19
CGA:   3    -0.593371070878E+03   -0.66851E-04   -0.66823E-04  1200   0.374E-04-0.560E-06
 gam= 0.146 trial= 0.614  step= 0.512 mean= 0.614
 gam= 0.192 g(H,U,f)=  0.670E-05 0.458E-06 0.805E-22 ort(H,U,f) =-0.107E-05 0.863E-06 0.285E-21
CGA:   4    -0.593371080438E+03   -0.95597E-05   -0.95491E-05  1200   0.715E-05-0.207E-06
 gam= 0.192 trial= 0.609  step= 0.580 mean= 0.609
 gam= 0.230 g(H,U,f)=  0.143E-05 0.209E-06 0.640E-20 ort(H,U,f) =-0.624E-06 0.405E-06 0.139E-20
CGA:   5    -0.593371082505E+03   -0.20674E-05   -0.20643E-05  1200   0.164E-05-0.219E-06
 gam= 0.230 trial= 0.608  step= 0.600 mean= 0.608
 gam= 0.246 g(H,U,f)=  0.332E-06 0.723E-07 0.164E-22 ort(H,U,f) =-0.262E-07 0.172E-06 0.400E-21
CGA:   6    -0.593371082983E+03   -0.47705E-06   -0.47780E-06  1200   0.404E-06 0.145E-06
 gam= 0.246 trial= 0.607  step= 0.725 mean= 0.607
 gam= 0.330 g(H,U,f)=  0.117E-06 0.169E-07 0.675E-22 ort(H,U,f) =-0.573E-08 0.533E-07-0.283E-21
CGA:   7    -0.593371083145E+03   -0.16253E-06   -0.15948E-06  1200   0.133E-06 0.476E-07
 gam= 0.330 trial= 0.613  step= 1.256 mean= 0.613
 gam= 0.000 g(H,U,f)=  0.151E-06 0.149E-08 0.257E-22 ort(H,U,f) =-0.881E-07-0.253E-08 0.225E-22
CGA:   8    -0.593371083210E+03   -0.64480E-07   -0.93668E-07  1200   0.152E-06-0.906E-07
 gam= 0.000 trial= 0.645  step= 0.376 mean= 0.645
 final diagonalization
   5 F= -.59337108E+03 E0= -.59337108E+03  d E =-.125642E-03
 curvature:  -0.42 expect dE=-0.212E-03 dE for cont linesearch -0.181E-13
 trial: gam= 1.19344 g(F)=  0.511E-03 g(S)=  0.000E+00 ort = 0.521E-08 (trialstep = 0.356E+00)
 search vector abs. value=  0.140E-02
 bond charge predicted
 wavefunctions rotated
       N       E                     dE             d eps       ncg     rms          ort
 gam= 0.000 g(H,U,f)=  0.302E-02 0.357E-04 0.270E-31 ort(H,U,f) = 0.000E+00 0.000E+00 0.000E+00
SDA:   1    -0.593369956162E+03    0.11270E-02    0.00000E+00  1200   0.305E-02 0.000E+00
 gam= 0.000 trial= 0.632  step= 0.641 mean= 0.632
 gam= 0.309 g(H,U,f)=  0.909E-03 0.349E-04 0.326E-31 ort(H,U,f) = 0.316E-04-0.317E-04-0.296E-31
CGA:   2    -0.593370934132E+03   -0.97797E-03   -0.97797E-03  1200   0.944E-03-0.606E-07
 gam= 0.309 trial= 0.632  step= 0.524 mean= 0.632
 gam= 0.139 g(H,U,f)=  0.127E-03 0.460E-05 0.222E-47 ort(H,U,f) =-0.745E-06 0.139E-05 0.000E+00
CGA:   3    -0.593371181143E+03   -0.24701E-03   -0.24704E-03  1200   0.131E-03 0.648E-06
 gam= 0.139 trial= 0.627  step= 0.530 mean= 0.627
 gam= 0.192 g(H,U,f)=  0.236E-04 0.154E-05-0.500E-35 ort(H,U,f) =-0.236E-05 0.245E-05 0.356E-34
CGA:   4    -0.593371215968E+03   -0.34825E-04   -0.34829E-04  1200   0.251E-04 0.900E-07
 gam= 0.192 trial= 0.622  step= 0.546 mean= 0.622
 gam= 0.207 g(H,U,f)=  0.437E-05 0.838E-06-0.614E-49 ort(H,U,f) =-0.779E-06 0.136E-05 0.000E+00
CGA:   5    -0.593371222812E+03   -0.68446E-05   -0.68668E-05  1200   0.521E-05 0.581E-06
 gam= 0.207 trial= 0.618  step= 0.689 mean= 0.618
 gam= 0.294 g(H,U,f)=  0.130E-05 0.224E-06 0.278E-49 ort(H,U,f) =-0.486E-06 0.527E-06 0.000E+00
CGA:   6    -0.593371224650E+03   -0.18373E-05   -0.18359E-05  1200   0.153E-05 0.406E-07
 gam= 0.294 trial= 0.622  step= 0.789 mean= 0.622
 gam= 0.341 g(H,U,f)=  0.482E-06 0.393E-07-0.421E-35 ort(H,U,f) =-0.171E-06 0.139E-06 0.517E-35
CGA:   7    -0.593371225254E+03   -0.60493E-06   -0.60777E-06  1200   0.521E-06-0.322E-07
 gam= 0.341 trial= 0.630  step= 0.658 mean= 0.630
 gam= 0.226 g(H,U,f)=  0.113E-06 0.431E-08 0.334E-52 ort(H,U,f) = 0.135E-07 0.239E-07 0.000E+00
CGA:   8    -0.593371225423E+03   -0.16837E-06   -0.16785E-06  1200   0.118E-06 0.374E-07
 gam= 0.226 trial= 0.632  step= 0.643 mean= 0.632
 final diagonalization
   6 F= -.59337123E+03 E0= -.59337123E+03  d E =-.142213E-03
 trial-energy change:   -0.000142  1 .order   -0.000143   -0.000182   -0.000104
 step:   0.8305(harm=  0.8305)  dis= 0.00177  next Energy=  -593.371295 (dE=-0.212E-03)
 bond charge predicted
 wavefunctions rotated
       N       E                     dE             d eps       ncg     rms          ort
 gam= 0.000 g(H,U,f)=  0.536E-02 0.633E-04 0.405E-50 ort(H,U,f) = 0.000E+00 0.000E+00 0.000E+00
SDA:   1    -0.593369039470E+03    0.21858E-02    0.00000E+00  1200   0.542E-02 0.000E+00
 gam= 0.000 trial= 0.632  step= 0.641 mean= 0.632
 gam= 0.309 g(H,U,f)=  0.162E-02 0.619E-04 0.456E-49 ort(H,U,f) = 0.561E-04-0.561E-04 0.000E+00
CGA:   2    -0.593370776864E+03   -0.17374E-02   -0.17374E-02  1200   0.168E-02-0.517E-07
 gam= 0.309 trial= 0.633  step= 0.524 mean= 0.633
 gam= 0.139 g(H,U,f)=  0.225E-03 0.817E-05 0.172E-32 ort(H,U,f) =-0.164E-05 0.251E-05-0.291E-31
CGA:   3    -0.593371215897E+03   -0.43903E-03   -0.43908E-03  1200   0.233E-03 0.866E-06
 gam= 0.139 trial= 0.627  step= 0.530 mean= 0.627
 gam= 0.191 g(H,U,f)=  0.418E-04 0.275E-05 0.433E-34 ort(H,U,f) =-0.425E-05 0.437E-05-0.332E-33
CGA:   4    -0.593371277731E+03   -0.61834E-04   -0.61840E-04  1200   0.445E-04 0.121E-06
 gam= 0.191 trial= 0.622  step= 0.550 mean= 0.622
 gam= 0.211 g(H,U,f)=  0.789E-05 0.149E-05 0.363E-32 ort(H,U,f) =-0.163E-05 0.241E-05 0.190E-33
CGA:   5    -0.593371289964E+03   -0.12233E-04   -0.12261E-04  1200   0.938E-05 0.777E-06
 gam= 0.211 trial= 0.619  step= 0.690 mean= 0.619
 gam= 0.293 g(H,U,f)=  0.235E-05 0.391E-06 0.217E-33 ort(H,U,f) =-0.878E-06 0.929E-06-0.116E-32
CGA:   6    -0.593371293255E+03   -0.32908E-05   -0.32889E-05  1200   0.274E-05 0.516E-07
 gam= 0.293 trial= 0.622  step= 0.785 mean= 0.622
 gam= 0.336 g(H,U,f)=  0.853E-06 0.692E-07-0.666E-34 ort(H,U,f) =-0.284E-06 0.246E-06 0.808E-34
CGA:   7    -0.593371294334E+03   -0.10793E-05   -0.10821E-05  1200   0.922E-06-0.385E-07
 gam= 0.336 trial= 0.630  step= 0.673 mean= 0.630
 gam= 0.231 g(H,U,f)=  0.206E-06 0.769E-08-0.115E-36 ort(H,U,f) = 0.117E-07 0.407E-07 0.157E-35
CGA:   8    -0.593371294642E+03   -0.30751E-06   -0.30617E-06  1200   0.213E-06 0.523E-07
 gam= 0.231 trial= 0.633  step= 0.670 mean= 0.633
 final diagonalization
   7 F= -.59337129E+03 E0= -.59337129E+03  d E =-.211432E-03
 curvature:  -1.14 expect dE=-0.698E-03 dE for cont linesearch -0.217E-08
 trial: gam= 1.19749 g(F)=  0.615E-03 g(S)=  0.000E+00 ort = 0.164E-05 (trialstep = 0.240E+00)
 search vector abs. value=  0.262E-02
 bond charge predicted
 wavefunctions rotated
       N       E                     dE             d eps       ncg     rms          ort
 gam= 0.000 g(H,U,f)=  0.258E-02 0.300E-04 0.129E-22 ort(H,U,f) = 0.000E+00 0.000E+00 0.000E+00
SDA:   1    -0.593370353873E+03    0.94046E-03    0.00000E+00  1200   0.261E-02 0.000E+00
 gam= 0.000 trial= 0.634  step= 0.640 mean= 0.634
 gam= 0.296 g(H,U,f)=  0.749E-03 0.226E-04 0.184E-22 ort(H,U,f) = 0.245E-04-0.230E-04-0.163E-22
CGA:   2    -0.593371188262E+03   -0.83439E-03   -0.83438E-03  1200   0.771E-03 0.154E-05
 gam= 0.296 trial= 0.635  step= 0.522 mean= 0.635
 gam= 0.138 g(H,U,f)=  0.103E-03 0.338E-05 0.116E-25 ort(H,U,f) =-0.196E-05 0.116E-05 0.345E-24
CGA:   3    -0.593371389726E+03   -0.20146E-03   -0.20142E-03  1200   0.107E-03-0.804E-06
 gam= 0.138 trial= 0.629  step= 0.532 mean= 0.629
 gam= 0.188 g(H,U,f)=  0.188E-04 0.127E-05 0.110E-25 ort(H,U,f) =-0.196E-05 0.200E-05-0.622E-25
CGA:   4    -0.593371418056E+03   -0.28330E-04   -0.28332E-04  1200   0.201E-04 0.415E-07
 gam= 0.188 trial= 0.624  step= 0.554 mean= 0.624
 gam= 0.214 g(H,U,f)=  0.362E-05 0.678E-06 0.172E-24 ort(H,U,f) =-0.106E-05 0.111E-05 0.334E-26
CGA:   5    -0.593371423625E+03   -0.55692E-05   -0.55713E-05  1200   0.429E-05 0.473E-07
 gam= 0.214 trial= 0.621  step= 0.669 mean= 0.621
 gam= 0.268 g(H,U,f)=  0.968E-06 0.183E-06 0.203E-26 ort(H,U,f) =-0.408E-06 0.440E-06-0.215E-25
CGA:   6    -0.593371425065E+03   -0.14395E-05   -0.14387E-05  1200   0.115E-05 0.317E-07
 gam= 0.268 trial= 0.623  step= 0.800 mean= 0.623
 gam= 0.337 g(H,U,f)=  0.355E-06 0.333E-07 0.167E-26 ort(H,U,f) =-0.155E-06 0.121E-06-0.404E-26
CGA:   7    -0.593371425525E+03   -0.46060E-06   -0.46370E-06  1200   0.388E-06-0.335E-07
 gam= 0.337 trial= 0.632  step= 0.723 mean= 0.632
 gam= 0.245 g(H,U,f)=  0.916E-07 0.339E-08 0.124E-26 ort(H,U,f) =-0.220E-07 0.192E-07-0.314E-27
CGA:   8    -0.593371425661E+03   -0.13581E-06   -0.13614E-06  1200   0.949E-07-0.284E-08
 gam= 0.245 trial= 0.636  step= 0.700 mean= 0.636
 final diagonalization
   8 F= -.59337143E+03 E0= -.59337143E+03  d E =-.131019E-03
 ZBRENT: can't locate minimum, use default step
 trial-energy change:   -0.000131  1 .order   -0.000131   -0.000148   -0.000114
 step:   0.9610(harm=  1.0414)  dis= 0.00275  next Energy=  -593.371616 (dE=-0.321E-03)
 bond charge predicted
 wavefunctions rotated
       N       E                     dE             d eps       ncg     rms          ort
 gam= 0.000 g(H,U,f)=  0.232E-01 0.272E-03 0.165E-20 ort(H,U,f) = 0.000E+00 0.000E+00 0.000E+00
SDA:   1    -0.593361965313E+03    0.94602E-02    0.00000E+00  1200   0.234E-01 0.000E+00
 gam= 0.000 trial= 0.640  step= 0.641 mean= 0.640
 gam= 0.296 g(H,U,f)=  0.674E-02 0.203E-03 0.269E-20 ort(H,U,f) = 0.212E-03-0.208E-03-0.242E-20
CGA:   2    -0.593369476527E+03   -0.75112E-02   -0.75112E-02  1200   0.695E-02 0.455E-05
 gam= 0.296 trial= 0.640  step= 0.522 mean= 0.640
 gam= 0.138 g(H,U,f)=  0.928E-03 0.305E-04 0.196E-23 ort(H,U,f) =-0.128E-04 0.104E-04 0.487E-22
CGA:   3    -0.593371288781E+03   -0.18123E-02   -0.18121E-02  1200   0.959E-03-0.231E-05
 gam= 0.138 trial= 0.634  step= 0.532 mean= 0.634
 gam= 0.189 g(H,U,f)=  0.170E-03 0.114E-04 0.115E-23 ort(H,U,f) =-0.178E-04 0.179E-04-0.664E-23
CGA:   4    -0.593371543711E+03   -0.25493E-03   -0.25494E-03  1200   0.181E-03 0.113E-06
 gam= 0.189 trial= 0.629  step= 0.554 mean= 0.629
 gam= 0.213 g(H,U,f)=  0.325E-04 0.605E-05 0.156E-22 ort(H,U,f) =-0.978E-05 0.993E-05 0.404E-24
CGA:   5    -0.593371593958E+03   -0.50247E-04   -0.50253E-04  1200   0.386E-04 0.152E-06
 gam= 0.213 trial= 0.625  step= 0.670 mean= 0.625
 gam= 0.268 g(H,U,f)=  0.871E-05 0.164E-05 0.105E-24 ort(H,U,f) =-0.382E-05 0.393E-05-0.132E-23
CGA:   6    -0.593371606897E+03   -0.12939E-04   -0.12936E-04  1200   0.103E-04 0.113E-06
 gam= 0.268 trial= 0.627  step= 0.781 mean= 0.627
 gam= 0.320 g(H,U,f)=  0.300E-05 0.315E-06 0.823E-25 ort(H,U,f) =-0.121E-05 0.112E-05-0.230E-24
CGA:   7    -0.593371610940E+03   -0.40433E-05   -0.40502E-05  1200   0.331E-05-0.856E-07
 gam= 0.320 trial= 0.635  step= 0.730 mean= 0.635
 gam= 0.251 g(H,U,f)=  0.794E-06 0.366E-07 0.756E-25 ort(H,U,f) =-0.199E-06 0.194E-06-0.875E-26
CGA:   8    -0.593371612139E+03   -0.11987E-05   -0.11990E-05  1200   0.830E-06-0.480E-08
 gam= 0.251 trial= 0.640  step= 0.710 mean= 0.640
 final diagonalization
   9 F= -.59337161E+03 E0= -.59337161E+03  d E =-.317497E-03
 curvature:  -2.19 expect dE=-0.396E-02 dE for cont linesearch -0.173E-05
 trial: gam= 2.87927 g(F)=  0.181E-02 g(S)=  0.000E+00 ort = 0.454E-04 (trialstep = 0.423E-01)
 search vector abs. value=  0.238E-01
 bond charge predicted
 wavefunctions rotated
       N       E                     dE             d eps       ncg     rms          ort
 gam= 0.000 g(H,U,f)=  0.730E-03 0.773E-05 0.738E-22 ort(H,U,f) = 0.000E+00 0.000E+00 0.000E+00
SDA:   1    -0.593371388943E+03    0.22200E-03    0.00000E+00  1200   0.738E-03 0.000E+00
 gam= 0.000 trial= 0.643  step= 0.640 mean= 0.643
 gam= 0.296 g(H,U,f)=  0.212E-03 0.610E-05 0.110E-21 ort(H,U,f) = 0.675E-05-0.595E-05-0.918E-22
CGA:   2    -0.593371625025E+03   -0.23608E-03   -0.23608E-03  1200   0.218E-03 0.794E-06
 gam= 0.296 trial= 0.643  step= 0.519 mean= 0.643
 gam= 0.138 g(H,U,f)=  0.291E-04 0.104E-05 0.733E-24 ort(H,U,f) =-0.511E-06 0.420E-07 0.676E-23
CGA:   3    -0.593371681743E+03   -0.56718E-04   -0.56689E-04  1200   0.302E-04-0.470E-06
 gam= 0.138 trial= 0.637  step= 0.535 mean= 0.637
 gam= 0.185 g(H,U,f)=  0.521E-05 0.360E-06 0.586E-26 ort(H,U,f) =-0.563E-06 0.551E-06-0.151E-24
CGA:   4    -0.593371689794E+03   -0.80511E-05   -0.80503E-05  1200   0.557E-05-0.116E-07
 gam= 0.185 trial= 0.632  step= 0.565 mean= 0.632
 gam= 0.223 g(H,U,f)=  0.106E-05 0.183E-06 0.111E-23 ort(H,U,f) =-0.349E-06 0.306E-06 0.311E-24
CGA:   5    -0.593371691369E+03   -0.15751E-05   -0.15735E-05  1200   0.124E-05-0.429E-07
 gam= 0.223 trial= 0.628  step= 0.666 mean= 0.628
 gam= 0.268 g(H,U,f)=  0.283E-06 0.500E-07 0.379E-26 ort(H,U,f) =-0.118E-06 0.122E-06 0.711E-25
CGA:   6    -0.593371691781E+03   -0.41148E-06   -0.41123E-06  1200   0.333E-06 0.455E-08
 gam= 0.268 trial= 0.630  step= 0.804 mean= 0.630
 gam= 0.346 g(H,U,f)=  0.106E-06 0.882E-08 0.466E-27 ort(H,U,f) =-0.451E-07 0.318E-07-0.830E-26
CGA:   7    -0.593371691914E+03   -0.13303E-06   -0.13431E-06  1200   0.115E-06-0.132E-07
 gam= 0.346 trial= 0.639  step= 0.684 mean= 0.639
 gam= 0.228 g(H,U,f)=  0.253E-07 0.975E-09 0.666E-26 ort(H,U,f) =-0.122E-08 0.556E-08 0.938E-26
CGA:   8    -0.593371691952E+03   -0.37935E-07   -0.37820E-07  1200   0.263E-07 0.435E-08
 gam= 0.228 trial= 0.641  step= 0.728 mean= 0.641
 final diagonalization
  10 F= -.59337169E+03 E0= -.59337169E+03  d E =-.798126E-04
 ZBRENT: can't locate minimum, use default step
 trial-energy change:   -0.000080  1 .order   -0.000080   -0.000082   -0.000077
 step:   0.1693(harm=  0.6835)  dis= 0.00146  next Energy=  -593.372275 (dE=-0.663E-03)
 bond charge predicted
 wavefunctions rotated
       N       E                     dE             d eps       ncg     rms          ort
 gam= 0.000 g(H,U,f)=  0.656E-02 0.710E-04 0.146E-20 ort(H,U,f) = 0.000E+00 0.000E+00 0.000E+00
SDA:   1    -0.593369173971E+03    0.25179E-02    0.00000E+00  1200   0.663E-02 0.000E+00
 gam= 0.000 trial= 0.645  step= 0.640 mean= 0.645
 gam= 0.296 g(H,U,f)=  0.191E-02 0.547E-04 0.205E-20 ort(H,U,f) = 0.568E-04-0.545E-04-0.183E-20
CGA:   2    -0.593371297872E+03   -0.21239E-02   -0.21239E-02  1200   0.197E-02 0.231E-05
 gam= 0.296 trial= 0.645  step= 0.518 mean= 0.645
 gam= 0.138 g(H,U,f)=  0.263E-03 0.937E-05 0.131E-22 ort(H,U,f) =-0.172E-05 0.356E-06 0.117E-21
CGA:   3    -0.593371806897E+03   -0.50902E-03   -0.50894E-03  1200   0.272E-03-0.137E-05
 gam= 0.138 trial= 0.639  step= 0.533 mean= 0.639
 gam= 0.188 g(H,U,f)=  0.480E-04 0.321E-05 0.363E-24 ort(H,U,f) =-0.493E-05 0.491E-05-0.489E-23
CGA:   4    -0.593371879389E+03   -0.72492E-04   -0.72491E-04  1200   0.512E-04-0.186E-07
 gam= 0.188 trial= 0.634  step= 0.559 mean= 0.634
 gam= 0.214 g(H,U,f)=  0.935E-05 0.163E-05 0.186E-22 ort(H,U,f) =-0.285E-05 0.273E-05 0.406E-23
CGA:   5    -0.593371893705E+03   -0.14317E-04   -0.14312E-04  1200   0.110E-04-0.124E-06
 gam= 0.214 trial= 0.630  step= 0.667 mean= 0.630
 gam= 0.266 g(H,U,f)=  0.246E-05 0.458E-06 0.935E-25 ort(H,U,f) =-0.107E-05 0.109E-05 0.141E-23
CGA:   6    -0.593371897355E+03   -0.36503E-05   -0.36501E-05  1200   0.292E-05 0.202E-07
 gam= 0.266 trial= 0.632  step= 0.778 mean= 0.632
 gam= 0.321 g(H,U,f)=  0.848E-06 0.886E-07 0.175E-26 ort(H,U,f) =-0.335E-06 0.305E-06-0.658E-25
CGA:   7    -0.593371898491E+03   -0.11356E-05   -0.11382E-05  1200   0.936E-06-0.308E-07
 gam= 0.321 trial= 0.639  step= 0.717 mean= 0.639
 gam= 0.246 g(H,U,f)=  0.219E-06 0.111E-07 0.162E-24 ort(H,U,f) =-0.441E-07 0.558E-07 0.191E-24
CGA:   8    -0.593371898824E+03   -0.33250E-06   -0.33212E-06  1200   0.230E-06 0.117E-07
 gam= 0.246 trial= 0.643  step= 0.711 mean= 0.643
 final diagonalization
  11 F= -.59337190E+03 E0= -.59337190E+03  d E =-.286684E-03
 curvature:  -1.50 expect dE=-0.143E-02 dE for cont linesearch -0.131E-03
 ZBRENT: increasing intervall
 opt :   0.4234  next Energy=  -593.372171 (dE=-0.559E-03)
 bond charge predicted
 wavefunctions rotated
       N       E                     dE             d eps       ncg     rms          ort
 gam= 0.000 g(H,U,f)=  0.263E-01 0.284E-03 0.112E-19 ort(H,U,f) = 0.000E+00 0.000E+00 0.000E+00
SDA:   1    -0.593361268596E+03    0.10630E-01    0.00000E+00  1200   0.265E-01 0.000E+00
 gam= 0.000 trial= 0.646  step= 0.640 mean= 0.646
 gam= 0.296 g(H,U,f)=  0.765E-02 0.219E-03 0.173E-19 ort(H,U,f) = 0.221E-03-0.218E-03-0.155E-19
CGA:   2    -0.593369766292E+03   -0.84977E-02   -0.84977E-02  1200   0.787E-02 0.366E-05
 gam= 0.296 trial= 0.646  step= 0.517 mean= 0.646
 gam= 0.138 g(H,U,f)=  0.105E-02 0.374E-04 0.114E-21 ort(H,U,f) =-0.395E-05 0.140E-05 0.962E-21
CGA:   3    -0.593371801988E+03   -0.20357E-02   -0.20356E-02  1200   0.109E-02-0.255E-05
 gam= 0.138 trial= 0.640  step= 0.533 mean= 0.640
 gam= 0.188 g(H,U,f)=  0.192E-03 0.128E-04 0.260E-23 ort(H,U,f) =-0.196E-04 0.195E-04-0.370E-22
CGA:   4    -0.593372091930E+03   -0.28994E-03   -0.28994E-03  1200   0.205E-03-0.548E-07
 gam= 0.188 trial= 0.634  step= 0.558 mean= 0.634
 gam= 0.214 g(H,U,f)=  0.373E-04 0.649E-05 0.146E-21 ort(H,U,f) =-0.111E-04 0.109E-04 0.331E-22
CGA:   5    -0.593372149082E+03   -0.57152E-04   -0.57143E-04  1200   0.438E-04-0.246E-06
 gam= 0.214 trial= 0.630  step= 0.668 mean= 0.630
 gam= 0.267 g(H,U,f)=  0.988E-05 0.183E-05 0.903E-24 ort(H,U,f) =-0.429E-05 0.435E-05 0.122E-22
CGA:   6    -0.593372163695E+03   -0.14613E-04   -0.14612E-04  1200   0.117E-04 0.573E-07
 gam= 0.267 trial= 0.632  step= 0.773 mean= 0.632
 gam= 0.317 g(H,U,f)=  0.335E-05 0.357E-06 0.704E-26 ort(H,U,f) =-0.128E-05 0.123E-05-0.375E-24
CGA:   7    -0.593372168220E+03   -0.45254E-05   -0.45289E-05  1200   0.371E-05-0.511E-07
 gam= 0.317 trial= 0.639  step= 0.724 mean= 0.639
 gam= 0.251 g(H,U,f)=  0.886E-06 0.448E-07 0.133E-23 ort(H,U,f) =-0.196E-06 0.223E-06 0.157E-23
CGA:   8    -0.593372169559E+03   -0.13388E-05   -0.13373E-05  1200   0.931E-06 0.272E-07
 gam= 0.251 trial= 0.644  step= 0.717 mean= 0.644
 final diagonalization
  12 F= -.59337217E+03 E0= -.59337217E+03  d E =-.557420E-03
 curvature:  -3.10 expect dE=-0.204E-02 dE for cont linesearch -0.634E-04
 ZBRENT: increasing intervall
 opt :   0.9314  next Energy=  -593.372144 (dE=-0.532E-03)
 bond charge predicted
 wavefunctions rotated
       N       E                     dE             d eps       ncg     rms          ort
 gam= 0.000 g(H,U,f)=  0.105E+00 0.114E-02 0.935E-19 ort(H,U,f) = 0.000E+00 0.000E+00 0.000E+00
SDA:   1    -0.593328532578E+03    0.43636E-01    0.00000E+00  1200   0.106E+00 0.000E+00
 gam= 0.000 trial= 0.647  step= 0.640 mean= 0.647
 gam= 0.297 g(H,U,f)=  0.306E-01 0.878E-03 0.178E-18 ort(H,U,f) = 0.869E-03-0.870E-03-0.160E-18
CGA:   2    -0.593362526077E+03   -0.33993E-01   -0.33993E-01  1200   0.315E-01-0.108E-05
 gam= 0.297 trial= 0.647  step= 0.517 mean= 0.647
 gam= 0.138 g(H,U,f)=  0.420E-02 0.148E-03 0.120E-20 ort(H,U,f) =-0.862E-05 0.494E-05 0.927E-20
CGA:   3    -0.593370668557E+03   -0.81425E-02   -0.81425E-02  1200   0.435E-02-0.368E-05
 gam= 0.138 trial= 0.640  step= 0.534 mean= 0.640
 gam= 0.188 g(H,U,f)=  0.767E-03 0.508E-04 0.188E-22 ort(H,U,f) =-0.777E-04 0.775E-04-0.301E-21
CGA:   4    -0.593371828161E+03   -0.11596E-02   -0.11596E-02  1200   0.818E-03-0.185E-06
 gam= 0.188 trial= 0.635  step= 0.558 mean= 0.635
 gam= 0.214 g(H,U,f)=  0.149E-03 0.259E-04 0.134E-20 ort(H,U,f) =-0.437E-04 0.432E-04 0.326E-21
CGA:   5    -0.593372056401E+03   -0.22824E-03   -0.22822E-03  1200   0.175E-03-0.502E-06
 gam= 0.214 trial= 0.631  step= 0.668 mean= 0.631
 gam= 0.267 g(H,U,f)=  0.395E-04 0.728E-05 0.115E-22 ort(H,U,f) =-0.171E-04 0.173E-04 0.132E-21
CGA:   6    -0.593372114779E+03   -0.58378E-04   -0.58375E-04  1200   0.467E-04 0.176E-06
 gam= 0.267 trial= 0.633  step= 0.771 mean= 0.633
 gam= 0.315 g(H,U,f)=  0.133E-04 0.144E-05 0.167E-26 ort(H,U,f) =-0.499E-05 0.492E-05-0.573E-24
CGA:   7    -0.593372132804E+03   -0.18025E-04   -0.18030E-04  1200   0.147E-04-0.676E-07
 gam= 0.315 trial= 0.640  step= 0.728 mean= 0.640
 gam= 0.254 g(H,U,f)=  0.356E-05 0.181E-06 0.131E-22 ort(H,U,f) =-0.830E-06 0.891E-06 0.163E-22
CGA:   8    -0.593372138164E+03   -0.53593E-05   -0.53566E-05  1200   0.374E-05 0.614E-07
 gam= 0.254 trial= 0.644  step= 0.720 mean= 0.644
 gam= 0.221 g(H,U,f)=  0.802E-06 0.227E-07 0.290E-23 ort(H,U,f) =-0.185E-07 0.418E-07-0.829E-23
CGA:   9    -0.593372139516E+03   -0.13527E-05   -0.13521E-05  1200   0.825E-06 0.233E-07
 gam= 0.221 trial= 0.648  step= 0.784 mean= 0.648
 final diagonalization
  13 F= -.59337214E+03 E0= -.59337214E+03  d E =-.527377E-03
 curvature:   1.27 expect dE= 0.462E-02 dE for cont linesearch  0.339E-04
 ZBRENT: bracketing found
 ZBRENT: interpolating
 opt :   0.6603  next Energy=  -593.372252 (dE=-0.640E-03)
 bond charge predicted
 wavefunctions rotated
       N       E                     dE             d eps       ncg     rms          ort
 gam= 0.000 g(H,U,f)=  0.299E-01 0.323E-03 0.356E-19 ort(H,U,f) = 0.000E+00 0.000E+00 0.000E+00
SDA:   1    -0.593359832834E+03    0.12305E-01    0.00000E+00  1200   0.302E-01 0.000E+00
 gam= 0.000 trial= 0.655  step= 0.640 mean= 0.655
 gam= 0.297 g(H,U,f)=  0.872E-02 0.249E-03 0.369E-19 ort(H,U,f) = 0.246E-03-0.249E-03-0.325E-19
CGA:   2    -0.593369511285E+03   -0.96785E-02   -0.96784E-02  1200   0.897E-02-0.321E-05
 gam= 0.297 trial= 0.654  step= 0.517 mean= 0.654
 gam= 0.138 g(H,U,f)=  0.120E-02 0.431E-04 0.235E-21 ort(H,U,f) = 0.204E-06 0.256E-05 0.238E-20
CGA:   3    -0.593371831294E+03   -0.23200E-02   -0.23202E-02  1200   0.124E-02 0.276E-05
 gam= 0.138 trial= 0.647  step= 0.534 mean= 0.647
 gam= 0.189 g(H,U,f)=  0.219E-03 0.147E-04 0.145E-22 ort(H,U,f) =-0.225E-04 0.226E-04-0.144E-21
CGA:   4    -0.593372162042E+03   -0.33075E-03   -0.33075E-03  1200   0.234E-03 0.593E-07
 gam= 0.189 trial= 0.642  step= 0.558 mean= 0.642
 gam= 0.213 g(H,U,f)=  0.423E-04 0.743E-05 0.389E-21 ort(H,U,f) =-0.122E-04 0.125E-04 0.665E-22
CGA:   5    -0.593372227256E+03   -0.65214E-04   -0.65224E-04  1200   0.497E-04 0.269E-06
 gam= 0.213 trial= 0.638  step= 0.670 mean= 0.638
 gam= 0.268 g(H,U,f)=  0.112E-04 0.209E-05 0.707E-24 ort(H,U,f) =-0.498E-05 0.498E-05 0.176E-22
CGA:   6    -0.593372243914E+03   -0.16658E-04   -0.16658E-04  1200   0.133E-04-0.185E-08
 gam= 0.268 trial= 0.639  step= 0.764 mean= 0.639
 gam= 0.309 g(H,U,f)=  0.369E-05 0.416E-06 0.148E-24 ort(H,U,f) =-0.134E-05 0.142E-05-0.253E-23
CGA:   7    -0.593372249001E+03   -0.50874E-05   -0.50822E-05  1200   0.411E-05 0.848E-07
 gam= 0.309 trial= 0.645  step= 0.737 mean= 0.645
 gam= 0.259 g(H,U,f)=  0.101E-05 0.532E-07 0.349E-23 ort(H,U,f) =-0.274E-06 0.258E-06 0.312E-23
CGA:   8    -0.593372250524E+03   -0.15226E-05   -0.15235E-05  1200   0.106E-05-0.152E-07
 gam= 0.259 trial= 0.650  step= 0.727 mean= 0.650
 final diagonalization
  14 F= -.59337225E+03 E0= -.59337225E+03  d E =-.638385E-03
 curvature:  -3.09 expect dE=-0.450E-02 dE for cont linesearch -0.287E-08
 trial: gam= 1.01831 g(F)=  0.146E-02 g(S)=  0.000E+00 ort =-0.470E-05 (trialstep = 0.151E+00)
 search vector abs. value=  0.261E-01
 bond charge predicted
 wavefunctions rotated
       N       E                     dE             d eps       ncg     rms          ort
 gam= 0.000 g(H,U,f)=  0.104E-01 0.120E-03 0.209E-19 ort(H,U,f) = 0.000E+00 0.000E+00 0.000E+00
SDA:   1    -0.593368105836E+03    0.41432E-02    0.00000E+00  1200   0.105E-01 0.000E+00
 gam= 0.000 trial= 0.654  step= 0.645 mean= 0.654
 gam= 0.299 g(H,U,f)=  0.303E-02 0.947E-04 0.293E-19 ort(H,U,f) = 0.953E-04-0.933E-04-0.261E-19
CGA:   2    -0.593371481742E+03   -0.33759E-02   -0.33759E-02  1200   0.313E-02 0.200E-05
 gam= 0.299 trial= 0.653  step= 0.518 mean= 0.653
 gam= 0.134 g(H,U,f)=  0.408E-03 0.123E-04 0.114E-21 ort(H,U,f) =-0.458E-05 0.270E-05 0.130E-20
CGA:   3    -0.593372291992E+03   -0.81025E-03   -0.81012E-03  1200   0.421E-03-0.188E-05
 gam= 0.134 trial= 0.647  step= 0.535 mean= 0.647
 gam= 0.190 g(H,U,f)=  0.751E-04 0.501E-05 0.194E-23 ort(H,U,f) =-0.723E-05 0.729E-05-0.375E-22
CGA:   4    -0.593372404483E+03   -0.11249E-03   -0.11249E-03  1200   0.801E-04 0.598E-07
 gam= 0.190 trial= 0.641  step= 0.554 mean= 0.641
 gam= 0.209 g(H,U,f)=  0.142E-04 0.251E-05 0.223E-21 ort(H,U,f) =-0.419E-05 0.418E-05 0.563E-22
CGA:   5    -0.593372426704E+03   -0.22220E-04   -0.22220E-04  1200   0.167E-04-0.949E-08
 gam= 0.209 trial= 0.637  step= 0.669 mean= 0.637
 gam= 0.261 g(H,U,f)=  0.372E-05 0.652E-06 0.364E-24 ort(H,U,f) =-0.160E-05 0.159E-05 0.958E-23
CGA:   6    -0.593372432299E+03   -0.55959E-05   -0.55965E-05  1200   0.437E-05-0.448E-08
 gam= 0.261 trial= 0.638  step= 0.771 mean= 0.638
 gam= 0.309 g(H,U,f)=  0.121E-05 0.147E-06 0.181E-26 ort(H,U,f) =-0.513E-06 0.479E-06-0.205E-24
CGA:   7    -0.593372433981E+03   -0.16815E-05   -0.16838E-05  1200   0.135E-05-0.333E-07
 gam= 0.309 trial= 0.645  step= 0.710 mean= 0.645
 gam= 0.242 g(H,U,f)=  0.309E-06 0.186E-07 0.131E-23 ort(H,U,f) =-0.644E-07 0.900E-07 0.169E-23
CGA:   8    -0.593372434458E+03   -0.47678E-06   -0.47623E-06  1200   0.327E-06 0.255E-07
 gam= 0.242 trial= 0.648  step= 0.710 mean= 0.648
 final diagonalization
  15 F= -.59337243E+03 E0= -.59337243E+03  d E =-.183934E-03
 trial-energy change:   -0.000184  1 .order   -0.000184   -0.000220   -0.000148
 step:   0.4659(harm=  0.4659)  dis= 0.00415  next Energy=  -593.372589 (dE=-0.338E-03)
 bond charge predicted
 wavefunctions rotated
       N       E                     dE             d eps       ncg     rms          ort
 gam= 0.000 g(H,U,f)=  0.449E-01 0.522E-03 0.109E-18 ort(H,U,f) = 0.000E+00 0.000E+00 0.000E+00
SDA:   1    -0.593353815546E+03    0.18618E-01    0.00000E+00  1200   0.454E-01 0.000E+00
 gam= 0.000 trial= 0.651  step= 0.645 mean= 0.651
 gam= 0.299 g(H,U,f)=  0.132E-01 0.410E-03 0.177E-18 ort(H,U,f) = 0.406E-03-0.403E-03-0.156E-18
CGA:   2    -0.593368455841E+03   -0.14640E-01   -0.14640E-01  1200   0.136E-01 0.329E-05
 gam= 0.299 trial= 0.651  step= 0.518 mean= 0.651
 gam= 0.134 g(H,U,f)=  0.176E-02 0.537E-04 0.768E-21 ort(H,U,f) =-0.157E-04 0.121E-04 0.799E-20
CGA:   3    -0.593371970630E+03   -0.35148E-02   -0.35146E-02  1200   0.182E-02-0.366E-05
 gam= 0.134 trial= 0.644  step= 0.536 mean= 0.644
 gam= 0.189 g(H,U,f)=  0.322E-03 0.217E-04 0.542E-23 ort(H,U,f) =-0.315E-04 0.316E-04-0.152E-21
CGA:   4    -0.593372458250E+03   -0.48762E-03   -0.48762E-03  1200   0.344E-03 0.985E-07
 gam= 0.189 trial= 0.639  step= 0.556 mean= 0.639
 gam= 0.212 g(H,U,f)=  0.618E-04 0.109E-04 0.129E-20 ort(H,U,f) =-0.181E-04 0.181E-04 0.364E-21
CGA:   5    -0.593372553833E+03   -0.95584E-04   -0.95582E-04  1200   0.728E-04-0.230E-07
 gam= 0.212 trial= 0.635  step= 0.670 mean= 0.635
 gam= 0.263 g(H,U,f)=  0.163E-04 0.282E-05 0.333E-23 ort(H,U,f) =-0.691E-05 0.693E-05 0.699E-22
CGA:   6    -0.593372578200E+03   -0.24367E-04   -0.24366E-04  1200   0.191E-04 0.180E-07
 gam= 0.263 trial= 0.636  step= 0.768 mean= 0.636
 gam= 0.310 g(H,U,f)=  0.529E-05 0.630E-06 0.106E-25 ort(H,U,f) =-0.213E-05 0.207E-05-0.124E-23
CGA:   7    -0.593372585541E+03   -0.73415E-05   -0.73451E-05  1200   0.592E-05-0.577E-07
 gam= 0.310 trial= 0.643  step= 0.719 mean= 0.643
 gam= 0.248 g(H,U,f)=  0.139E-05 0.772E-07 0.817E-23 ort(H,U,f) =-0.317E-06 0.377E-06 0.105E-22
CGA:   8    -0.593372587668E+03   -0.21263E-05   -0.21240E-05  1200   0.147E-05 0.605E-07
 gam= 0.248 trial= 0.647  step= 0.715 mean= 0.647
 final diagonalization
  16 F= -.59337259E+03 E0= -.59337259E+03  d E =-.337144E-03
 curvature:  -4.19 expect dE=-0.896E-02 dE for cont linesearch -0.133E-09
 trial: gam= 1.38778 g(F)=  0.214E-02 g(S)=  0.000E+00 ort = 0.911E-06 (trialstep = 0.107E+00)
 search vector abs. value=  0.525E-01
 bond charge predicted
 wavefunctions rotated
       N       E                     dE             d eps       ncg     rms          ort
 gam= 0.000 g(H,U,f)=  0.974E-02 0.115E-03 0.434E-19 ort(H,U,f) = 0.000E+00 0.000E+00 0.000E+00
SDA:   1    -0.593368768133E+03    0.38174E-02    0.00000E+00  1200   0.986E-02 0.000E+00
 gam= 0.000 trial= 0.650  step= 0.639 mean= 0.650
 gam= 0.295 g(H,U,f)=  0.282E-02 0.934E-04 0.608E-19 ort(H,U,f) = 0.919E-04-0.913E-04-0.543E-19
CGA:   2    -0.593371916325E+03   -0.31482E-02   -0.31482E-02  1200   0.291E-02 0.585E-06
 gam= 0.295 trial= 0.650  step= 0.520 mean= 0.650
 gam= 0.134 g(H,U,f)=  0.379E-03 0.122E-04 0.456E-22 ort(H,U,f) =-0.267E-05 0.161E-05 0.118E-20
CGA:   3    -0.593372673065E+03   -0.75674E-03   -0.75667E-03  1200   0.391E-03-0.106E-05
 gam= 0.134 trial= 0.643  step= 0.539 mean= 0.643
 gam= 0.190 g(H,U,f)=  0.694E-04 0.495E-05 0.569E-24 ort(H,U,f) =-0.705E-05 0.707E-05 0.228E-22
CGA:   4    -0.593372778504E+03   -0.10544E-03   -0.10544E-03  1200   0.743E-04 0.185E-07
 gam= 0.190 trial= 0.638  step= 0.558 mean= 0.638
 gam= 0.214 g(H,U,f)=  0.134E-04 0.246E-05 0.367E-21 ort(H,U,f) =-0.382E-05 0.411E-05 0.125E-21
CGA:   5    -0.593372799218E+03   -0.20714E-04   -0.20725E-04  1200   0.159E-04 0.282E-06
 gam= 0.214 trial= 0.634  step= 0.681 mean= 0.634
 gam= 0.272 g(H,U,f)=  0.369E-05 0.632E-06 0.146E-24 ort(H,U,f) =-0.159E-05 0.156E-05-0.791E-23
CGA:   6    -0.593372804648E+03   -0.54306E-05   -0.54316E-05  1200   0.432E-05-0.363E-07
 gam= 0.272 trial= 0.636  step= 0.774 mean= 0.636
 gam= 0.311 g(H,U,f)=  0.121E-05 0.130E-06 0.161E-24 ort(H,U,f) =-0.490E-06 0.448E-06-0.213E-23
CGA:   7    -0.593372806313E+03   -0.16648E-05   -0.16677E-05  1200   0.134E-05-0.419E-07
 gam= 0.311 trial= 0.643  step= 0.698 mean= 0.643
 gam= 0.236 g(H,U,f)=  0.302E-06 0.156E-07 0.593E-24 ort(H,U,f) =-0.346E-07 0.789E-07 0.974E-24
CGA:   8    -0.593372806779E+03   -0.46574E-06   -0.46475E-06  1200   0.317E-06 0.443E-07
 gam= 0.236 trial= 0.646  step= 0.700 mean= 0.646
 final diagonalization
  17 F= -.59337281E+03 E0= -.59337281E+03  d E =-.219111E-03
 ZBRENT: can't locate minimum, use default step
 trial-energy change:   -0.000219  1 .order   -0.000219   -0.000228   -0.000209
 step:   0.4265(harm=  1.2807)  dis= 0.00546  next Energy=  -593.373958 (dE=-0.137E-02)
 bond charge predicted
 wavefunctions rotated
       N       E                     dE             d eps       ncg     rms          ort
 gam= 0.000 g(H,U,f)=  0.876E-01 0.105E-02 0.545E-18 ort(H,U,f) = 0.000E+00 0.000E+00 0.000E+00
SDA:   1    -0.593337001234E+03    0.35805E-01    0.00000E+00  1200   0.887E-01 0.000E+00
 gam= 0.000 trial= 0.649  step= 0.639 mean= 0.649
 gam= 0.295 g(H,U,f)=  0.254E-01 0.837E-03 0.925E-18 ort(H,U,f) = 0.822E-03-0.824E-03-0.844E-18
CGA:   2    -0.593365332515E+03   -0.28331E-01   -0.28331E-01  1200   0.262E-01-0.132E-05
 gam= 0.295 trial= 0.648  step= 0.520 mean= 0.648
 gam= 0.134 g(H,U,f)=  0.342E-02 0.109E-03 0.875E-21 ort(H,U,f) =-0.151E-04 0.128E-04 0.186E-19
CGA:   3    -0.593372139447E+03   -0.68069E-02   -0.68068E-02  1200   0.352E-02-0.240E-05
 gam= 0.134 trial= 0.642  step= 0.538 mean= 0.642
 gam= 0.191 g(H,U,f)=  0.629E-03 0.441E-04 0.731E-23 ort(H,U,f) =-0.626E-04 0.627E-04 0.302E-21
CGA:   4    -0.593373088068E+03   -0.94862E-03   -0.94863E-03  1200   0.673E-03 0.960E-07
 gam= 0.191 trial= 0.637  step= 0.558 mean= 0.637
 gam= 0.212 g(H,U,f)=  0.121E-03 0.218E-04 0.511E-20 ort(H,U,f) =-0.356E-04 0.365E-04 0.174E-20
CGA:   5    -0.593373275695E+03   -0.18763E-03   -0.18766E-03  1200   0.143E-03 0.836E-06
 gam= 0.212 trial= 0.633  step= 0.677 mean= 0.633
 gam= 0.267 g(H,U,f)=  0.324E-04 0.569E-05 0.242E-25 ort(H,U,f) =-0.139E-04 0.139E-04 0.120E-22
CGA:   6    -0.593373324028E+03   -0.48333E-04   -0.48334E-04  1200   0.381E-04-0.329E-07
 gam= 0.267 trial= 0.635  step= 0.769 mean= 0.635
 gam= 0.306 g(H,U,f)=  0.105E-04 0.121E-05 0.496E-24 ort(H,U,f) =-0.418E-05 0.409E-05-0.147E-22
CGA:   7    -0.593373338678E+03   -0.14650E-04   -0.14656E-04  1200   0.117E-04-0.864E-07
 gam= 0.306 trial= 0.642  step= 0.717 mean= 0.642
 gam= 0.246 g(H,U,f)=  0.272E-05 0.149E-06 0.126E-22 ort(H,U,f) =-0.571E-06 0.721E-06 0.205E-22
CGA:   8    -0.593373342856E+03   -0.41788E-05   -0.41730E-05  1200   0.287E-05 0.150E-06
 gam= 0.246 trial= 0.645  step= 0.713 mean= 0.645
 final diagonalization
  18 F= -.59337334E+03 E0= -.59337334E+03  d E =-.755189E-03
 curvature:  -7.39 expect dE=-0.104E-01 dE for cont linesearch -0.281E-03
 ZBRENT: increasing intervall
 opt :   1.0663  next Energy=  -593.373895 (dE=-0.131E-02)
 bond charge predicted
 wavefunctions rotated
       N       E                     dE             d eps       ncg     rms          ort
 gam= 0.000 g(H,U,f)=  0.351E+00 0.425E-02 0.331E-17 ort(H,U,f) = 0.000E+00 0.000E+00 0.000E+00
SDA:   1    -0.593228460447E+03    0.14488E+00    0.00000E+00  1200   0.355E+00 0.000E+00
 gam= 0.000 trial= 0.649  step= 0.639 mean= 0.649
 gam= 0.295 g(H,U,f)=  0.102E+00 0.334E-02 0.785E-17 ort(H,U,f) = 0.325E-02-0.328E-02-0.720E-17
CGA:   2    -0.593341830695E+03   -0.11337E+00   -0.11337E+00  1200   0.105E+00-0.286E-04
 gam= 0.295 trial= 0.648  step= 0.519 mean= 0.648
 gam= 0.134 g(H,U,f)=  0.137E-01 0.432E-03 0.103E-19 ort(H,U,f) =-0.443E-04 0.459E-04 0.167E-18
CGA:   3    -0.593369072715E+03   -0.27242E-01   -0.27243E-01  1200   0.141E-01 0.161E-05
 gam= 0.134 trial= 0.642  step= 0.539 mean= 0.642
 gam= 0.191 g(H,U,f)=  0.251E-02 0.174E-03 0.144E-21 ort(H,U,f) =-0.247E-03 0.247E-03 0.367E-20
CGA:   4    -0.593372865851E+03   -0.37931E-02   -0.37931E-02  1200   0.268E-02 0.316E-06
 gam= 0.191 trial= 0.637  step= 0.558 mean= 0.637
 gam= 0.212 g(H,U,f)=  0.483E-03 0.867E-04 0.386E-19 ort(H,U,f) =-0.143E-03 0.144E-03 0.141E-19
CGA:   5    -0.593373614742E+03   -0.74889E-03   -0.74895E-03  1200   0.570E-03 0.164E-05
 gam= 0.212 trial= 0.633  step= 0.675 mean= 0.633
 gam= 0.266 g(H,U,f)=  0.129E-03 0.227E-04 0.327E-22 ort(H,U,f) =-0.551E-04 0.553E-04 0.120E-20
CGA:   6    -0.593373807166E+03   -0.19242E-03   -0.19242E-03  1200   0.152E-03 0.145E-06
 gam= 0.266 trial= 0.635  step= 0.768 mean= 0.635
 gam= 0.305 g(H,U,f)=  0.414E-04 0.489E-05 0.122E-25 ort(H,U,f) =-0.164E-04 0.164E-04 0.687E-23
CGA:   7    -0.593373865350E+03   -0.58184E-04   -0.58188E-04  1200   0.463E-04-0.557E-07
 gam= 0.305 trial= 0.641  step= 0.722 mean= 0.641
 gam= 0.249 g(H,U,f)=  0.109E-04 0.602E-06 0.125E-21 ort(H,U,f) =-0.256E-05 0.289E-05 0.218E-21
CGA:   8    -0.593373882075E+03   -0.16725E-04   -0.16712E-04  1200   0.115E-04 0.329E-06
 gam= 0.249 trial= 0.645  step= 0.716 mean= 0.645
 gam= 0.218 g(H,U,f)=  0.244E-05 0.798E-07 0.910E-22 ort(H,U,f) =-0.123E-06 0.216E-06-0.155E-21
CGA:   9    -0.593373886239E+03   -0.41635E-05   -0.41602E-05  1200   0.252E-05 0.929E-07
 gam= 0.218 trial= 0.649  step= 0.780 mean= 0.649
 final diagonalization
  19 F= -.59337389E+03 E0= -.59337389E+03  d E =-.129857E-02
 curvature: -14.52 expect dE=-0.464E-01 dE for cont linesearch -0.295E-04
 trial: gam= 1.36640 g(F)=  0.320E-02 g(S)=  0.000E+00 ort = 0.326E-03 (trialstep = 0.154E+00)
 search vector abs. value=  0.102E+00
 bond charge predicted
 wavefunctions rotated
       N       E                     dE             d eps       ncg     rms          ort
 gam= 0.000 g(H,U,f)=  0.375E-01 0.412E-03 0.593E-18 ort(H,U,f) = 0.000E+00 0.000E+00 0.000E+00
SDA:   1    -0.593358889880E+03    0.14992E-01    0.00000E+00  1200   0.379E-01 0.000E+00
 gam= 0.000 trial= 0.656  step= 0.639 mean= 0.656
 gam= 0.291 g(H,U,f)=  0.107E-01 0.300E-03 0.783E-18 ort(H,U,f) = 0.307E-03-0.309E-03-0.728E-18
CGA:   2    -0.593370991871E+03   -0.12102E-01   -0.12102E-01  1200   0.110E-01-0.209E-05
 gam= 0.291 trial= 0.655  step= 0.522 mean= 0.655
 gam= 0.135 g(H,U,f)=  0.145E-02 0.442E-04 0.135E-21 ort(H,U,f) =-0.108E-04 0.919E-05 0.719E-20
CGA:   3    -0.593373870834E+03   -0.28790E-02   -0.28789E-02  1200   0.149E-02-0.157E-05
 gam= 0.135 trial= 0.648  step= 0.536 mean= 0.648
 gam= 0.192 g(H,U,f)=  0.269E-03 0.181E-04 0.244E-21 ort(H,U,f) =-0.272E-04 0.273E-04 0.149E-20
CGA:   4    -0.593374271450E+03   -0.40062E-03   -0.40062E-03  1200   0.287E-03 0.136E-06
 gam= 0.192 trial= 0.642  step= 0.551 mean= 0.642
 gam= 0.210 g(H,U,f)=  0.511E-04 0.926E-05 0.488E-20 ort(H,U,f) =-0.148E-04 0.155E-04 0.241E-20
CGA:   5    -0.593374350428E+03   -0.78979E-04   -0.79009E-04  1200   0.604E-04 0.656E-06
 gam= 0.210 trial= 0.638  step= 0.676 mean= 0.638
 gam= 0.270 g(H,U,f)=  0.138E-04 0.246E-05 0.897E-24 ort(H,U,f) =-0.618E-05 0.597E-05 0.739E-22
CGA:   6    -0.593374370883E+03   -0.20455E-04   -0.20459E-04  1200   0.163E-04-0.203E-06
 gam= 0.270 trial= 0.640  step= 0.767 mean= 0.640
 gam= 0.305 g(H,U,f)=  0.446E-05 0.506E-06 0.241E-23 ort(H,U,f) =-0.181E-05 0.175E-05 0.346E-22
CGA:   7    -0.593374377097E+03   -0.62142E-05   -0.62178E-05  1200   0.497E-05-0.517E-07
 gam= 0.305 trial= 0.646  step= 0.710 mean= 0.646
 gam= 0.240 g(H,U,f)=  0.112E-05 0.659E-07 0.574E-23 ort(H,U,f) =-0.194E-06 0.330E-06 0.203E-22
CGA:   8    -0.593374378858E+03   -0.17604E-05   -0.17565E-05  1200   0.119E-05 0.136E-06
 gam= 0.240 trial= 0.649  step= 0.714 mean= 0.649
 final diagonalization
  20 F= -.59337438E+03 E0= -.59337438E+03  d E =-.492619E-03
 ZBRENT: can't locate minimum, use default step
 trial-energy change:   -0.000493  1 .order   -0.000495   -0.000559   -0.000431
 step:   0.6140(harm=  0.6688)  dis= 0.01193  next Energy=  -593.375104 (dE=-0.122E-02)
 bond charge predicted
 wavefunctions rotated
       N       E                     dE             d eps       ncg     rms          ort
 gam= 0.000 g(H,U,f)=  0.338E+00 0.377E-02 0.569E-17 ort(H,U,f) = 0.000E+00 0.000E+00 0.000E+00
SDA:   1    -0.593235582514E+03    0.13879E+00    0.00000E+00  1200   0.341E+00 0.000E+00
 gam= 0.000 trial= 0.653  step= 0.638 mean= 0.653
 gam= 0.291 g(H,U,f)=  0.968E-01 0.269E-02 0.979E-17 ort(H,U,f) = 0.275E-02-0.277E-02-0.916E-17
CGA:   2    -0.593344565776E+03   -0.10898E+00   -0.10898E+00  1200   0.995E-01-0.188E-04
 gam= 0.291 trial= 0.652  step= 0.522 mean= 0.652
 gam= 0.135 g(H,U,f)=  0.131E-01 0.394E-03 0.598E-20 ort(H,U,f) =-0.775E-04 0.781E-04 0.156E-18
CGA:   3    -0.593370539217E+03   -0.25973E-01   -0.25974E-01  1200   0.134E-01 0.621E-06
 gam= 0.135 trial= 0.645  step= 0.537 mean= 0.645
 gam= 0.191 g(H,U,f)=  0.240E-02 0.160E-03 0.366E-20 ort(H,U,f) =-0.242E-03 0.242E-03 0.208E-19
CGA:   4    -0.593374150905E+03   -0.36117E-02   -0.36117E-02  1200   0.256E-02 0.696E-06
 gam= 0.191 trial= 0.640  step= 0.554 mean= 0.640
 gam= 0.211 g(H,U,f)=  0.458E-03 0.825E-04 0.636E-19 ort(H,U,f) =-0.135E-03 0.137E-03 0.333E-19
CGA:   5    -0.593374860897E+03   -0.70999E-03   -0.71008E-03  1200   0.540E-03 0.198E-05
 gam= 0.211 trial= 0.636  step= 0.672 mean= 0.636
 gam= 0.265 g(H,U,f)=  0.121E-03 0.221E-04 0.157E-21 ort(H,U,f) =-0.537E-04 0.533E-04 0.357E-20
CGA:   6    -0.593375042487E+03   -0.18159E-03   -0.18160E-03  1200   0.143E-03-0.344E-06
 gam= 0.265 trial= 0.637  step= 0.765 mean= 0.637
 gam= 0.304 g(H,U,f)=  0.388E-04 0.466E-05 0.755E-22 ort(H,U,f) =-0.159E-04 0.159E-04 0.781E-21
CGA:   7    -0.593375097226E+03   -0.54739E-04   -0.54739E-04  1200   0.435E-04 0.534E-09
 gam= 0.304 trial= 0.644  step= 0.723 mean= 0.644
 gam= 0.246 g(H,U,f)=  0.101E-04 0.610E-06 0.141E-21 ort(H,U,f) =-0.255E-05 0.300E-05 0.440E-21
CGA:   8    -0.593375112968E+03   -0.15741E-04   -0.15723E-04  1200   0.107E-04 0.451E-06
 gam= 0.246 trial= 0.648  step= 0.719 mean= 0.648
 gam= 0.222 g(H,U,f)=  0.230E-05 0.731E-07 0.144E-21 ort(H,U,f) =-0.124E-06 0.223E-06-0.257E-21
CGA:   9    -0.593375116861E+03   -0.38938E-05   -0.38902E-05  1200   0.238E-05 0.995E-07
 gam= 0.222 trial= 0.651  step= 0.770 mean= 0.651
 final diagonalization
  21 F= -.59337512E+03 E0= -.59337512E+03  d E =-.123062E-02
 curvature:  -9.26 expect dE=-0.328E-01 dE for cont linesearch -0.184E-04
 trial: gam= 1.21170 g(F)=  0.354E-02 g(S)=  0.000E+00 ort = 0.450E-03 (trialstep = 0.162E+00)
 search vector abs. value=  0.154E+00
 bond charge predicted
 wavefunctions rotated
       N       E                     dE             d eps       ncg     rms          ort
 gam= 0.000 g(H,U,f)=  0.593E-01 0.685E-03 0.154E-17 ort(H,U,f) = 0.000E+00 0.000E+00 0.000E+00
SDA:   1    -0.593351208413E+03    0.23905E-01    0.00000E+00  1200   0.600E-01 0.000E+00
 gam= 0.000 trial= 0.657  step= 0.636 mean= 0.657
 gam= 0.292 g(H,U,f)=  0.171E-01 0.468E-03 0.219E-17 ort(H,U,f) = 0.498E-03-0.499E-03-0.205E-17
CGA:   2    -0.593370284718E+03   -0.19076E-01   -0.19076E-01  1200   0.175E-01-0.164E-05
 gam= 0.292 trial= 0.656  step= 0.522 mean= 0.656
 gam= 0.136 g(H,U,f)=  0.232E-02 0.686E-04 0.109E-20 ort(H,U,f) =-0.224E-04 0.202E-04 0.331E-19
CGA:   3    -0.593374863203E+03   -0.45785E-02   -0.45783E-02  1200   0.239E-02-0.220E-05
 gam= 0.136 trial= 0.650  step= 0.534 mean= 0.650
 gam= 0.192 g(H,U,f)=  0.430E-03 0.289E-04 0.186E-21 ort(H,U,f) =-0.429E-04 0.431E-04 0.227E-20
CGA:   4    -0.593375500853E+03   -0.63765E-03   -0.63767E-03  1200   0.459E-03 0.275E-06
 gam= 0.192 trial= 0.644  step= 0.552 mean= 0.644
 gam= 0.209 g(H,U,f)=  0.811E-04 0.148E-04 0.123E-19 ort(H,U,f) =-0.237E-04 0.245E-04 0.512E-20
CGA:   5    -0.593375627438E+03   -0.12658E-03   -0.12662E-03  1200   0.958E-04 0.838E-06
 gam= 0.209 trial= 0.639  step= 0.676 mean= 0.639
 gam= 0.268 g(H,U,f)=  0.218E-04 0.390E-05 0.478E-25 ort(H,U,f) =-0.970E-05 0.946E-05 0.264E-22
CGA:   6    -0.593375659880E+03   -0.32442E-04   -0.32446E-04  1200   0.257E-04-0.236E-06
 gam= 0.268 trial= 0.641  step= 0.764 mean= 0.641
 gam= 0.305 g(H,U,f)=  0.700E-05 0.835E-06 0.637E-25 ort(H,U,f) =-0.288E-05 0.283E-05-0.828E-23
CGA:   7    -0.593375669672E+03   -0.97921E-05   -0.97951E-05  1200   0.783E-05-0.496E-07
 gam= 0.305 trial= 0.647  step= 0.715 mean= 0.647
 gam= 0.244 g(H,U,f)=  0.180E-05 0.104E-06 0.151E-22 ort(H,U,f) =-0.363E-06 0.523E-06 0.383E-22
CGA:   8    -0.593375672470E+03   -0.27984E-05   -0.27932E-05  1200   0.191E-05 0.160E-06
 gam= 0.244 trial= 0.651  step= 0.716 mean= 0.651
 final diagonalization
  22 F= -.59337567E+03 E0= -.59337567E+03  d E =-.555609E-03
 trial-energy change:   -0.000556  1 .order   -0.000559   -0.000663   -0.000455
 step:   0.5176(harm=  0.5176)  dis= 0.01312  next Energy=  -593.376174 (dE=-0.106E-02)
 bond charge predicted
 wavefunctions rotated
       N       E                     dE             d eps       ncg     rms          ort
 gam= 0.000 g(H,U,f)=  0.284E+00 0.333E-02 0.600E-17 ort(H,U,f) = 0.000E+00 0.000E+00 0.000E+00
SDA:   1    -0.593258828493E+03    0.11684E+00    0.00000E+00  1200   0.288E+00 0.000E+00
 gam= 0.000 trial= 0.654  step= 0.636 mean= 0.654
 gam= 0.293 g(H,U,f)=  0.820E-01 0.223E-02 0.110E-16 ort(H,U,f) = 0.239E-02-0.239E-02-0.104E-16
CGA:   2    -0.593350304222E+03   -0.91476E-01   -0.91476E-01  1200   0.842E-01 0.150E-05
 gam= 0.293 trial= 0.653  step= 0.522 mean= 0.653
 gam= 0.136 g(H,U,f)=  0.111E-01 0.330E-03 0.103E-19 ort(H,U,f) =-0.100E-03 0.973E-04 0.212E-18
CGA:   3    -0.593372303902E+03   -0.22000E-01   -0.21999E-01  1200   0.114E-01-0.278E-05
 gam= 0.136 trial= 0.646  step= 0.535 mean= 0.646
 gam= 0.191 g(H,U,f)=  0.205E-02 0.138E-03 0.120E-20 ort(H,U,f) =-0.205E-03 0.206E-03 0.127E-19
CGA:   4    -0.593375366508E+03   -0.30626E-02   -0.30627E-02  1200   0.219E-02 0.921E-06
 gam= 0.191 trial= 0.641  step= 0.554 mean= 0.641
 gam= 0.209 g(H,U,f)=  0.388E-03 0.706E-04 0.589E-19 ort(H,U,f) =-0.115E-03 0.117E-03 0.260E-19
CGA:   5    -0.593375973300E+03   -0.60679E-03   -0.60687E-03  1200   0.459E-03 0.182E-05
 gam= 0.209 trial= 0.637  step= 0.673 mean= 0.637
 gam= 0.265 g(H,U,f)=  0.103E-03 0.187E-04 0.449E-22 ort(H,U,f) =-0.457E-04 0.454E-04 0.177E-20
CGA:   6    -0.593376127787E+03   -0.15449E-03   -0.15449E-03  1200   0.122E-03-0.333E-06
 gam= 0.265 trial= 0.638  step= 0.763 mean= 0.638
 gam= 0.304 g(H,U,f)=  0.330E-04 0.405E-05 0.271E-23 ort(H,U,f) =-0.136E-04 0.136E-04 0.127E-21
CGA:   7    -0.593376174194E+03   -0.46407E-04   -0.46408E-04  1200   0.370E-04-0.123E-07
 gam= 0.304 trial= 0.645  step= 0.722 mean= 0.645
 gam= 0.247 g(H,U,f)=  0.865E-05 0.508E-06 0.110E-21 ort(H,U,f) =-0.216E-05 0.254E-05 0.268E-21
CGA:   8    -0.593376187583E+03   -0.13389E-04   -0.13374E-04  1200   0.916E-05 0.376E-06
 gam= 0.247 trial= 0.648  step= 0.719 mean= 0.648
 gam= 0.222 g(H,U,f)=  0.197E-05 0.647E-07 0.152E-21 ort(H,U,f) =-0.104E-06 0.190E-06-0.210E-21
CGA:   9    -0.593376190911E+03   -0.33277E-05   -0.33247E-05  1200   0.203E-05 0.866E-07
 gam= 0.222 trial= 0.652  step= 0.776 mean= 0.652
 final diagonalization
  23 F= -.59337619E+03 E0= -.59337619E+03  d E =-.107405E-02
 curvature:  -9.78 expect dE=-0.327E-01 dE for cont linesearch -0.174E-05
 trial: gam= 1.06650 g(F)=  0.335E-02 g(S)=  0.000E+00 ort = 0.166E-03 (trialstep = 0.201E+00)
 search vector abs. value=  0.179E+00
 bond charge predicted
 wavefunctions rotated
       N       E                     dE             d eps       ncg     rms          ort
 gam= 0.000 g(H,U,f)=  0.102E+00 0.118E-02 0.280E-17 ort(H,U,f) = 0.000E+00 0.000E+00 0.000E+00
SDA:   1    -0.593334610167E+03    0.41577E-01    0.00000E+00  1200   0.103E+00 0.000E+00
 gam= 0.000 trial= 0.658  step= 0.635 mean= 0.658
 gam= 0.292 g(H,U,f)=  0.294E-01 0.866E-03 0.395E-17 ort(H,U,f) = 0.894E-03-0.897E-03-0.380E-17
CGA:   2    -0.593367444273E+03   -0.32834E-01   -0.32834E-01  1200   0.302E-01-0.241E-05
 gam= 0.292 trial= 0.657  step= 0.522 mean= 0.657
 gam= 0.138 g(H,U,f)=  0.403E-02 0.129E-03 0.256E-20 ort(H,U,f) =-0.187E-04 0.169E-04 0.667E-19
CGA:   3    -0.593375339082E+03   -0.78948E-02   -0.78948E-02  1200   0.416E-02-0.173E-05
 gam= 0.138 trial= 0.650  step= 0.535 mean= 0.650
 gam= 0.194 g(H,U,f)=  0.757E-03 0.511E-04 0.230E-21 ort(H,U,f) =-0.749E-04 0.751E-04 0.349E-20
CGA:   4    -0.593376451871E+03   -0.11128E-02   -0.11128E-02  1200   0.808E-03 0.237E-06
 gam= 0.194 trial= 0.644  step= 0.555 mean= 0.644
 gam= 0.211 g(H,U,f)=  0.145E-03 0.258E-04 0.241E-19 ort(H,U,f) =-0.421E-04 0.432E-04 0.945E-20
CGA:   5    -0.593376676084E+03   -0.22421E-03   -0.22426E-03  1200   0.171E-03 0.109E-05
 gam= 0.211 trial= 0.640  step= 0.680 mean= 0.640
 gam= 0.272 g(H,U,f)=  0.398E-04 0.673E-05 0.429E-23 ort(H,U,f) =-0.167E-04 0.165E-04 0.351E-21
CGA:   6    -0.593376734285E+03   -0.58201E-04   -0.58205E-04  1200   0.465E-04-0.174E-06
 gam= 0.272 trial= 0.642  step= 0.766 mean= 0.642
 gam= 0.308 g(H,U,f)=  0.129E-04 0.139E-05 0.118E-23 ort(H,U,f) =-0.481E-05 0.475E-05 0.528E-22
CGA:   7    -0.593376752073E+03   -0.17788E-04   -0.17791E-04  1200   0.143E-04-0.514E-07
 gam= 0.308 trial= 0.648  step= 0.718 mean= 0.648
 gam= 0.246 g(H,U,f)=  0.336E-05 0.163E-06 0.446E-22 ort(H,U,f) =-0.619E-06 0.827E-06 0.109E-21
CGA:   8    -0.593376757215E+03   -0.51423E-05   -0.51355E-05  1200   0.353E-05 0.207E-06
 gam= 0.246 trial= 0.652  step= 0.719 mean= 0.652
 gam= 0.222 g(H,U,f)=  0.765E-06 0.193E-07 0.610E-22 ort(H,U,f) = 0.640E-08 0.463E-07-0.844E-22
CGA:   9    -0.593376758502E+03   -0.12874E-05   -0.12859E-05  1200   0.784E-06 0.527E-07
 gam= 0.222 trial= 0.655  step= 0.800 mean= 0.655
 final diagonalization
  24 F= -.59337676E+03 E0= -.59337676E+03  d E =-.567592E-03
 trial-energy change:   -0.000568  1 .order   -0.000576   -0.000708   -0.000443
 step:   0.5377(harm=  0.5377)  dis= 0.01529  next Energy=  -593.377138 (dE=-0.947E-03)
 bond charge predicted
 wavefunctions rotated
       N       E                     dE             d eps       ncg     rms          ort
 gam= 0.000 g(H,U,f)=  0.287E+00 0.332E-02 0.878E-17 ort(H,U,f) = 0.000E+00 0.000E+00 0.000E+00
SDA:   1    -0.593258684921E+03    0.11807E+00    0.00000E+00  1200   0.291E+00 0.000E+00
 gam= 0.000 trial= 0.662  step= 0.635 mean= 0.662
 gam= 0.292 g(H,U,f)=  0.825E-01 0.243E-02 0.147E-16 ort(H,U,f) = 0.250E-02-0.251E-02-0.142E-16
CGA:   2    -0.593350943489E+03   -0.92259E-01   -0.92258E-01  1200   0.850E-01-0.127E-04
 gam= 0.292 trial= 0.661  step= 0.522 mean= 0.661
 gam= 0.138 g(H,U,f)=  0.113E-01 0.360E-03 0.140E-19 ort(H,U,f) =-0.445E-04 0.448E-04 0.287E-18
CGA:   3    -0.593373137812E+03   -0.22194E-01   -0.22195E-01  1200   0.117E-01 0.344E-06
 gam= 0.138 trial= 0.654  step= 0.535 mean= 0.654
 gam= 0.194 g(H,U,f)=  0.212E-02 0.143E-03 0.104E-20 ort(H,U,f) =-0.209E-03 0.209E-03 0.142E-19
CGA:   4    -0.593376264956E+03   -0.31271E-02   -0.31272E-02  1200   0.227E-02 0.583E-06
 gam= 0.194 trial= 0.648  step= 0.556 mean= 0.648
 gam= 0.211 g(H,U,f)=  0.407E-03 0.721E-04 0.897E-19 ort(H,U,f) =-0.119E-03 0.120E-03 0.363E-19
CGA:   5    -0.593376894400E+03   -0.62944E-03   -0.62953E-03  1200   0.479E-03 0.180E-05
 gam= 0.211 trial= 0.643  step= 0.678 mean= 0.643
 gam= 0.270 g(H,U,f)=  0.111E-03 0.189E-04 0.841E-22 ort(H,U,f) =-0.463E-04 0.462E-04 0.300E-20
CGA:   6    -0.593377056993E+03   -0.16259E-03   -0.16260E-03  1200   0.129E-03-0.145E-06
 gam= 0.270 trial= 0.645  step= 0.766 mean= 0.645
 gam= 0.307 g(H,U,f)=  0.358E-04 0.393E-05 0.177E-22 ort(H,U,f) =-0.134E-04 0.134E-04 0.416E-21
CGA:   7    -0.593377106522E+03   -0.49529E-04   -0.49529E-04  1200   0.398E-04-0.113E-07
 gam= 0.307 trial= 0.651  step= 0.723 mean= 0.651
 gam= 0.248 g(H,U,f)=  0.941E-05 0.467E-06 0.218E-21 ort(H,U,f) =-0.198E-05 0.234E-05 0.520E-21
CGA:   8    -0.593377120900E+03   -0.14378E-04   -0.14365E-04  1200   0.988E-05 0.362E-06
 gam= 0.248 trial= 0.655  step= 0.721 mean= 0.655
 gam= 0.222 g(H,U,f)=  0.214E-05 0.545E-07 0.209E-21 ort(H,U,f) =-0.403E-07 0.128E-06-0.344E-21
CGA:   9    -0.593377124496E+03   -0.35967E-05   -0.35940E-05  1200   0.219E-05 0.880E-07
 gam= 0.222 trial= 0.658  step= 0.784 mean= 0.658
 final diagonalization
  25 F= -.59337712E+03 E0= -.59337712E+03  d E =-.933586E-03
 curvature: -13.69 expect dE=-0.574E-01 dE for cont linesearch -0.236E-06
 trial: gam= 1.16461 g(F)=  0.419E-02 g(S)=  0.000E+00 ort = 0.556E-04 (trialstep = 0.194E+00)
 search vector abs. value=  0.248E+00
 bond charge predicted
 wavefunctions rotated
       N       E                     dE             d eps       ncg     rms          ort
 gam= 0.000 g(H,U,f)=  0.132E+00 0.159E-02 0.448E-17 ort(H,U,f) = 0.000E+00 0.000E+00 0.000E+00
SDA:   1    -0.593323085701E+03    0.54035E-01    0.00000E+00  1200   0.134E+00 0.000E+00
 gam= 0.000 trial= 0.664  step= 0.634 mean= 0.664
 gam= 0.294 g(H,U,f)=  0.382E-01 0.119E-02 0.563E-17 ort(H,U,f) = 0.122E-02-0.122E-02-0.544E-17
CGA:   2    -0.593365549838E+03   -0.42464E-01   -0.42464E-01  1200   0.393E-01 0.193E-05
 gam= 0.294 trial= 0.663  step= 0.525 mean= 0.663
 gam= 0.138 g(H,U,f)=  0.527E-02 0.156E-03 0.161E-19 ort(H,U,f) =-0.361E-04 0.322E-04 0.205E-18
CGA:   3    -0.593375872381E+03   -0.10323E-01   -0.10322E-01  1200   0.543E-02-0.390E-05
 gam= 0.138 trial= 0.656  step= 0.534 mean= 0.656
 gam= 0.195 g(H,U,f)=  0.990E-03 0.680E-04 0.411E-21 ort(H,U,f) =-0.948E-04 0.952E-04 0.708E-20
CGA:   4    -0.593377320942E+03   -0.14486E-02   -0.14486E-02  1200   0.106E-02 0.365E-06
 gam= 0.195 trial= 0.650  step= 0.556 mean= 0.650
 gam= 0.211 g(H,U,f)=  0.190E-03 0.332E-04 0.451E-19 ort(H,U,f) =-0.551E-04 0.559E-04 0.193E-19
CGA:   5    -0.593377614735E+03   -0.29379E-03   -0.29383E-03  1200   0.223E-03 0.768E-06
 gam= 0.211 trial= 0.645  step= 0.683 mean= 0.645
 gam= 0.272 g(H,U,f)=  0.522E-04 0.835E-05 0.882E-22 ort(H,U,f) =-0.210E-04 0.209E-04 0.221E-20
CGA:   6    -0.593377690884E+03   -0.76149E-04   -0.76151E-04  1200   0.606E-04-0.131E-06
 gam= 0.272 trial= 0.647  step= 0.765 mean= 0.647
 gam= 0.309 g(H,U,f)=  0.168E-04 0.188E-05 0.217E-22 ort(H,U,f) =-0.626E-05 0.620E-05 0.347E-21
CGA:   7    -0.593377714058E+03   -0.23173E-04   -0.23176E-04  1200   0.187E-04-0.534E-07
 gam= 0.309 trial= 0.653  step= 0.720 mean= 0.653
 gam= 0.249 g(H,U,f)=  0.445E-05 0.206E-06 0.159E-21 ort(H,U,f) =-0.820E-06 0.101E-05 0.355E-21
CGA:   8    -0.593377720788E+03   -0.67301E-05   -0.67236E-05  1200   0.465E-05 0.195E-06
 gam= 0.249 trial= 0.656  step= 0.717 mean= 0.656
 gam= 0.221 g(H,U,f)=  0.100E-05 0.286E-07 0.100E-21 ort(H,U,f) =-0.191E-07 0.657E-07-0.199E-21
CGA:   9    -0.593377722475E+03   -0.16873E-05   -0.16860E-05  1200   0.103E-05 0.466E-07
 gam= 0.221 trial= 0.659  step= 0.793 mean= 0.659
 final diagonalization
  26 F= -.59337772E+03 E0= -.59337772E+03  d E =-.597979E-03
 trial-energy change:   -0.000598  1 .order   -0.000606   -0.000827   -0.000386
 step:   0.3641(harm=  0.3641)  dis= 0.01247  next Energy=  -593.377899 (dE=-0.775E-03)
 bond charge predicted
 wavefunctions rotated
       N       E                     dE             d eps       ncg     rms          ort
 gam= 0.000 g(H,U,f)=  0.101E+00 0.121E-02 0.400E-17 ort(H,U,f) = 0.000E+00 0.000E+00 0.000E+00
SDA:   1    -0.593336190345E+03    0.41530E-01    0.00000E+00  1200   0.102E+00 0.000E+00
 gam= 0.000 trial= 0.666  step= 0.634 mean= 0.666
 gam= 0.294 g(H,U,f)=  0.291E-01 0.908E-03 0.494E-17 ort(H,U,f) = 0.931E-03-0.928E-03-0.475E-17
CGA:   2    -0.593368593552E+03   -0.32403E-01   -0.32403E-01  1200   0.300E-01 0.216E-05
 gam= 0.294 trial= 0.664  step= 0.525 mean= 0.664
 gam= 0.138 g(H,U,f)=  0.402E-02 0.119E-03 0.132E-19 ort(H,U,f) =-0.284E-04 0.247E-04 0.176E-18
CGA:   3    -0.593376473183E+03   -0.78796E-02   -0.78794E-02  1200   0.414E-02-0.364E-05
 gam= 0.138 trial= 0.657  step= 0.534 mean= 0.657
 gam= 0.195 g(H,U,f)=  0.755E-03 0.520E-04 0.285E-21 ort(H,U,f) =-0.724E-04 0.727E-04 0.548E-20
CGA:   4    -0.593377578898E+03   -0.11057E-02   -0.11057E-02  1200   0.807E-03 0.287E-06
 gam= 0.195 trial= 0.651  step= 0.556 mean= 0.651
 gam= 0.211 g(H,U,f)=  0.145E-03 0.254E-04 0.390E-19 ort(H,U,f) =-0.420E-04 0.427E-04 0.162E-19
CGA:   5    -0.593377803200E+03   -0.22430E-03   -0.22433E-03  1200   0.170E-03 0.637E-06
 gam= 0.211 trial= 0.646  step= 0.683 mean= 0.646
 gam= 0.272 g(H,U,f)=  0.399E-04 0.638E-05 0.517E-22 ort(H,U,f) =-0.160E-04 0.159E-04 0.156E-20
CGA:   6    -0.593377861331E+03   -0.58131E-04   -0.58133E-04  1200   0.463E-04-0.116E-06
 gam= 0.272 trial= 0.648  step= 0.765 mean= 0.648
 gam= 0.309 g(H,U,f)=  0.128E-04 0.143E-05 0.148E-22 ort(H,U,f) =-0.479E-05 0.474E-05 0.259E-21
CGA:   7    -0.593377879017E+03   -0.17686E-04   -0.17689E-04  1200   0.143E-04-0.476E-07
 gam= 0.309 trial= 0.654  step= 0.719 mean= 0.654
 gam= 0.248 g(H,U,f)=  0.338E-05 0.158E-06 0.131E-21 ort(H,U,f) =-0.612E-06 0.778E-06 0.287E-21
CGA:   8    -0.593377884145E+03   -0.51277E-05   -0.51221E-05  1200   0.354E-05 0.166E-06
 gam= 0.248 trial= 0.657  step= 0.717 mean= 0.657
 gam= 0.221 g(H,U,f)=  0.762E-06 0.220E-07 0.885E-22 ort(H,U,f) =-0.120E-07 0.518E-07-0.168E-21
CGA:   9    -0.593377885430E+03   -0.12849E-05   -0.12836E-05  1200   0.784E-06 0.398E-07
 gam= 0.221 trial= 0.660  step= 0.797 mean= 0.660
 final diagonalization
  27 F= -.59337789E+03 E0= -.59337789E+03  d E =-.760933E-03
 curvature: -10.59 expect dE=-0.139E-01 dE for cont linesearch -0.227E-08
 trial: gam= 0.29396 g(F)=  0.132E-02 g(S)=  0.000E+00 ort = 0.729E-05 (trialstep = 0.228E+00)
 search vector abs. value=  0.227E-01
 bond charge predicted
 wavefunctions rotated
       N       E                     dE             d eps       ncg     rms          ort
 gam= 0.000 g(H,U,f)=  0.159E-01 0.174E-03 0.434E-18 ort(H,U,f) = 0.000E+00 0.000E+00 0.000E+00
SDA:   1    -0.593371502242E+03    0.63819E-02    0.00000E+00  1200   0.160E-01 0.000E+00
 gam= 0.000 trial= 0.667  step= 0.644 mean= 0.667
 gam= 0.297 g(H,U,f)=  0.464E-02 0.129E-03 0.512E-18 ort(H,U,f) = 0.135E-03-0.132E-03-0.499E-18
CGA:   2    -0.593376665293E+03   -0.51631E-02   -0.51631E-02  1200   0.477E-02 0.266E-05
 gam= 0.297 trial= 0.666  step= 0.520 mean= 0.666
 gam= 0.138 g(H,U,f)=  0.640E-03 0.192E-04 0.668E-20 ort(H,U,f) =-0.752E-05 0.512E-05 0.402E-19
CGA:   3    -0.593377904448E+03   -0.12392E-02   -0.12390E-02  1200   0.659E-03-0.240E-05
 gam= 0.138 trial= 0.659  step= 0.528 mean= 0.659
 gam= 0.193 g(H,U,f)=  0.119E-03 0.770E-05 0.453E-22 ort(H,U,f) =-0.113E-04 0.113E-04-0.994E-21
CGA:   4    -0.593378078544E+03   -0.17410E-03   -0.17410E-03  1200   0.127E-03-0.155E-09
 gam= 0.193 trial= 0.652  step= 0.558 mean= 0.652
 gam= 0.209 g(H,U,f)=  0.227E-04 0.381E-05 0.426E-20 ort(H,U,f) =-0.656E-05 0.646E-05 0.142E-20
CGA:   5    -0.593378113994E+03   -0.35450E-04   -0.35445E-04  1200   0.265E-04-0.103E-06
 gam= 0.209 trial= 0.647  step= 0.679 mean= 0.647
 gam= 0.272 g(H,U,f)=  0.619E-05 0.101E-05 0.127E-22 ort(H,U,f) =-0.248E-05 0.247E-05 0.249E-21
CGA:   6    -0.593378122984E+03   -0.89904E-05   -0.89905E-05  1200   0.721E-05-0.115E-07
 gam= 0.272 trial= 0.649  step= 0.763 mean= 0.649
 gam= 0.310 g(H,U,f)=  0.201E-05 0.223E-06 0.174E-25 ort(H,U,f) =-0.762E-06 0.739E-06 0.297E-23
CGA:   7    -0.593378125730E+03   -0.27463E-05   -0.27474E-05  1200   0.223E-05-0.226E-07
 gam= 0.310 trial= 0.655  step= 0.723 mean= 0.655
 gam= 0.250 g(H,U,f)=  0.532E-06 0.257E-07 0.247E-22 ort(H,U,f) =-0.107E-06 0.129E-06 0.355E-22
CGA:   8    -0.593378126535E+03   -0.80453E-06   -0.80401E-06  1200   0.558E-06 0.220E-07
 gam= 0.250 trial= 0.658  step= 0.717 mean= 0.658
 final diagonalization
  28 F= -.59337813E+03 E0= -.59337813E+03  d E =-.241105E-03
 trial-energy change:   -0.000241  1 .order   -0.000242   -0.000301   -0.000184
 step:   0.5894(harm=  0.5894)  dis= 0.00648  next Energy=  -593.378274 (dE=-0.388E-03)
 bond charge predicted
 wavefunctions rotated
       N       E                     dE             d eps       ncg     rms          ort
 gam= 0.000 g(H,U,f)=  0.398E-01 0.439E-03 0.100E-17 ort(H,U,f) = 0.000E+00 0.000E+00 0.000E+00
SDA:   1    -0.593361687008E+03    0.16439E-01    0.00000E+00  1200   0.402E-01 0.000E+00
 gam= 0.000 trial= 0.661  step= 0.643 mean= 0.661
 gam= 0.297 g(H,U,f)=  0.116E-01 0.323E-03 0.128E-17 ort(H,U,f) = 0.335E-03-0.331E-03-0.124E-17
CGA:   2    -0.593374608235E+03   -0.12921E-01   -0.12921E-01  1200   0.120E-01 0.347E-05
 gam= 0.297 trial= 0.660  step= 0.520 mean= 0.660
 gam= 0.138 g(H,U,f)=  0.160E-02 0.482E-04 0.178E-19 ort(H,U,f) =-0.166E-04 0.130E-04 0.102E-18
CGA:   3    -0.593377715384E+03   -0.31071E-02   -0.31069E-02  1200   0.165E-02-0.364E-05
 gam= 0.138 trial= 0.653  step= 0.529 mean= 0.653
 gam= 0.192 g(H,U,f)=  0.297E-03 0.192E-04 0.816E-22 ort(H,U,f) =-0.283E-04 0.283E-04-0.211E-20
CGA:   4    -0.593378151764E+03   -0.43638E-03   -0.43638E-03  1200   0.316E-03 0.506E-08
 gam= 0.192 trial= 0.647  step= 0.560 mean= 0.647
 gam= 0.209 g(H,U,f)=  0.567E-04 0.951E-05 0.105E-19 ort(H,U,f) =-0.163E-04 0.161E-04 0.366E-20
CGA:   5    -0.593378240261E+03   -0.88497E-04   -0.88490E-04  1200   0.662E-04-0.168E-06
 gam= 0.209 trial= 0.643  step= 0.677 mean= 0.643
 gam= 0.270 g(H,U,f)=  0.154E-04 0.254E-05 0.365E-22 ort(H,U,f) =-0.618E-05 0.618E-05 0.662E-21
CGA:   6    -0.593378262658E+03   -0.22397E-04   -0.22397E-04  1200   0.179E-04 0.503E-08
 gam= 0.270 trial= 0.644  step= 0.761 mean= 0.644
 gam= 0.309 g(H,U,f)=  0.497E-05 0.558E-06 0.323E-24 ort(H,U,f) =-0.188E-05 0.185E-05 0.202E-22
CGA:   7    -0.593378269470E+03   -0.68119E-05   -0.68138E-05  1200   0.553E-05-0.295E-07
 gam= 0.309 trial= 0.650  step= 0.725 mean= 0.650
 gam= 0.251 g(H,U,f)=  0.132E-05 0.656E-07 0.618E-22 ort(H,U,f) =-0.289E-06 0.329E-06 0.914E-22
CGA:   8    -0.593378271472E+03   -0.20023E-05   -0.20004E-05  1200   0.139E-05 0.392E-07
 gam= 0.251 trial= 0.654  step= 0.718 mean= 0.654
 final diagonalization
  29 F= -.59337827E+03 E0= -.59337827E+03  d E =-.386043E-03
 curvature:  -5.08 expect dE=-0.902E-02 dE for cont linesearch -0.140E-07
 trial: gam= 1.32781 g(F)=  0.177E-02 g(S)=  0.000E+00 ort = 0.790E-05 (trialstep = 0.163E+00)
 search vector abs. value=  0.418E-01
 bond charge predicted
 wavefunctions rotated
       N       E                     dE             d eps       ncg     rms          ort
 gam= 0.000 g(H,U,f)=  0.141E-01 0.132E-03 0.296E-18 ort(H,U,f) = 0.000E+00 0.000E+00 0.000E+00
SDA:   1    -0.593372590796E+03    0.56787E-02    0.00000E+00  1200   0.143E-01 0.000E+00
 gam= 0.000 trial= 0.657  step= 0.653 mean= 0.657
 gam= 0.294 g(H,U,f)=  0.409E-02 0.941E-04 0.317E-18 ort(H,U,f) = 0.997E-04-0.980E-04-0.315E-18
CGA:   2    -0.593377249932E+03   -0.46591E-02   -0.46591E-02  1200   0.419E-02 0.174E-05
 gam= 0.294 trial= 0.657  step= 0.513 mean= 0.657
 gam= 0.138 g(H,U,f)=  0.559E-03 0.174E-04 0.254E-20 ort(H,U,f) =-0.323E-05 0.166E-05 0.198E-19
CGA:   3    -0.593378324090E+03   -0.10742E-02   -0.10741E-02  1200   0.577E-03-0.158E-05
 gam= 0.138 trial= 0.650  step= 0.530 mean= 0.650
 gam= 0.189 g(H,U,f)=  0.103E-03 0.624E-05 0.254E-23 ort(H,U,f) =-0.965E-05 0.963E-05 0.167E-21
CGA:   4    -0.593378476768E+03   -0.15268E-03   -0.15268E-03  1200   0.109E-03-0.274E-07
 gam= 0.189 trial= 0.644  step= 0.558 mean= 0.644
 gam= 0.208 g(H,U,f)=  0.195E-04 0.317E-05 0.285E-20 ort(H,U,f) =-0.537E-05 0.536E-05 0.115E-20
CGA:   5    -0.593378507155E+03   -0.30387E-04   -0.30387E-04  1200   0.227E-04-0.644E-08
 gam= 0.208 trial= 0.639  step= 0.674 mean= 0.639
 gam= 0.267 g(H,U,f)=  0.518E-05 0.877E-06 0.192E-22 ort(H,U,f) =-0.215E-05 0.212E-05 0.256E-21
CGA:   6    -0.593378514802E+03   -0.76472E-05   -0.76476E-05  1200   0.606E-05-0.300E-07
 gam= 0.267 trial= 0.641  step= 0.760 mean= 0.641
 gam= 0.307 g(H,U,f)=  0.168E-05 0.180E-06 0.105E-22 ort(H,U,f) =-0.621E-06 0.613E-06 0.650E-22
CGA:   7    -0.593378517101E+03   -0.22985E-05   -0.22990E-05  1200   0.186E-05-0.829E-08
 gam= 0.307 trial= 0.647  step= 0.722 mean= 0.647
 gam= 0.245 g(H,U,f)=  0.432E-06 0.241E-07 0.179E-22 ort(H,U,f) =-0.914E-07 0.122E-06 0.400E-22
CGA:   8    -0.593378517773E+03   -0.67184E-06   -0.67023E-06  1200   0.456E-06 0.305E-07
 gam= 0.245 trial= 0.651  step= 0.719 mean= 0.651
 final diagonalization
  30 F= -.59337852E+03 E0= -.59337852E+03  d E =-.246300E-03
 trial-energy change:   -0.000246  1 .order   -0.000247   -0.000291   -0.000202
 step:   0.5327(harm=  0.5327)  dis= 0.00822  next Energy=  -593.378747 (dE=-0.476E-03)
 bond charge predicted
 wavefunctions rotated
       N       E                     dE             d eps       ncg     rms          ort
 gam= 0.000 g(H,U,f)=  0.725E-01 0.683E-03 0.189E-17 ort(H,U,f) = 0.000E+00 0.000E+00 0.000E+00
SDA:   1    -0.593348326408E+03    0.30191E-01    0.00000E+00  1200   0.732E-01 0.000E+00
 gam= 0.000 trial= 0.654  step= 0.653 mean= 0.654
 gam= 0.294 g(H,U,f)=  0.210E-01 0.482E-03 0.208E-17 ort(H,U,f) = 0.503E-03-0.504E-03-0.211E-17
CGA:   2    -0.593372235558E+03   -0.23909E-01   -0.23909E-01  1200   0.215E-01-0.592E-06
 gam= 0.294 trial= 0.654  step= 0.513 mean= 0.654
 gam= 0.138 g(H,U,f)=  0.287E-02 0.890E-04 0.186E-19 ort(H,U,f) =-0.103E-04 0.752E-05 0.132E-18
CGA:   3    -0.593377747321E+03   -0.55118E-02   -0.55117E-02  1200   0.296E-02-0.279E-05
 gam= 0.138 trial= 0.647  step= 0.529 mean= 0.647
 gam= 0.190 g(H,U,f)=  0.530E-03 0.318E-04 0.638E-23 ort(H,U,f) =-0.490E-04 0.489E-04 0.684E-21
CGA:   4    -0.593378531120E+03   -0.78380E-03   -0.78379E-03  1200   0.562E-03-0.531E-07
 gam= 0.190 trial= 0.641  step= 0.557 mean= 0.641
 gam= 0.206 g(H,U,f)=  0.998E-04 0.161E-04 0.192E-19 ort(H,U,f) =-0.273E-04 0.273E-04 0.759E-20
CGA:   5    -0.593378687587E+03   -0.15647E-03   -0.15647E-03  1200   0.116E-03-0.221E-07
 gam= 0.206 trial= 0.637  step= 0.673 mean= 0.637
 gam= 0.265 g(H,U,f)=  0.262E-04 0.451E-05 0.178E-21 ort(H,U,f) =-0.108E-04 0.108E-04 0.202E-20
CGA:   6    -0.593378726584E+03   -0.38997E-04   -0.38998E-04  1200   0.307E-04-0.192E-07
 gam= 0.265 trial= 0.639  step= 0.759 mean= 0.639
 gam= 0.306 g(H,U,f)=  0.846E-05 0.938E-06 0.844E-22 ort(H,U,f) =-0.315E-05 0.316E-05 0.497E-21
CGA:   7    -0.593378738252E+03   -0.11668E-04   -0.11667E-04  1200   0.939E-05 0.649E-08
 gam= 0.306 trial= 0.645  step= 0.729 mean= 0.645
 gam= 0.249 g(H,U,f)=  0.221E-05 0.126E-06 0.142E-21 ort(H,U,f) =-0.558E-06 0.630E-06 0.309E-21
CGA:   8    -0.593378741678E+03   -0.34260E-05   -0.34227E-05  1200   0.234E-05 0.721E-07
 gam= 0.249 trial= 0.649  step= 0.725 mean= 0.649
 final diagonalization
  31 F= -.59337874E+03 E0= -.59337874E+03  d E =-.470205E-03
 curvature:  -6.24 expect dE=-0.130E-01 dE for cont linesearch -0.130E-07
 trial: gam= 1.18383 g(F)=  0.208E-02 g(S)=  0.000E+00 ort =-0.935E-05 (trialstep = 0.163E+00)
 search vector abs. value=  0.607E-01
 bond charge predicted
 wavefunctions rotated
       N       E                     dE             d eps       ncg     rms          ort
 gam= 0.000 g(H,U,f)=  0.199E-01 0.197E-03 0.583E-18 ort(H,U,f) = 0.000E+00 0.000E+00 0.000E+00
SDA:   1    -0.593370603855E+03    0.81344E-02    0.00000E+00  1200   0.201E-01 0.000E+00
 gam= 0.000 trial= 0.653  step= 0.659 mean= 0.653
 gam= 0.294 g(H,U,f)=  0.579E-02 0.136E-03 0.664E-18 ort(H,U,f) = 0.147E-03-0.145E-03-0.626E-18
CGA:   2    -0.593377233337E+03   -0.66295E-02   -0.66295E-02  1200   0.592E-02 0.193E-05
 gam= 0.294 trial= 0.653  step= 0.512 mean= 0.653
 gam= 0.137 g(H,U,f)=  0.789E-03 0.212E-04 0.318E-20 ort(H,U,f) =-0.812E-05 0.640E-05 0.330E-19
CGA:   3    -0.593378749092E+03   -0.15158E-02   -0.15156E-02  1200   0.810E-03-0.172E-05
 gam= 0.137 trial= 0.646  step= 0.526 mean= 0.646
 gam= 0.188 g(H,U,f)=  0.143E-03 0.873E-05 0.582E-23 ort(H,U,f) =-0.128E-04 0.129E-04 0.330E-21
CGA:   4    -0.593378962048E+03   -0.21296E-03   -0.21296E-03  1200   0.152E-03 0.119E-06
 gam= 0.188 trial= 0.640  step= 0.556 mean= 0.640
 gam= 0.205 g(H,U,f)=  0.267E-04 0.435E-05 0.573E-20 ort(H,U,f) =-0.708E-05 0.731E-05 0.215E-20
CGA:   5    -0.593379004273E+03   -0.42224E-04   -0.42233E-04  1200   0.311E-04 0.222E-06
 gam= 0.205 trial= 0.636  step= 0.673 mean= 0.636
 gam= 0.265 g(H,U,f)=  0.703E-05 0.119E-05 0.141E-22 ort(H,U,f) =-0.289E-05 0.287E-05 0.308E-21
CGA:   6    -0.593379014750E+03   -0.10478E-04   -0.10478E-04  1200   0.822E-05-0.179E-07
 gam= 0.265 trial= 0.638  step= 0.755 mean= 0.638
 gam= 0.303 g(H,U,f)=  0.221E-05 0.277E-06 0.107E-22 ort(H,U,f) =-0.884E-06 0.893E-06 0.839E-22
CGA:   7    -0.593379017853E+03   -0.31026E-05   -0.31018E-05  1200   0.249E-05 0.929E-08
 gam= 0.303 trial= 0.644  step= 0.720 mean= 0.644
 gam= 0.246 g(H,U,f)=  0.577E-06 0.359E-07 0.355E-22 ort(H,U,f) =-0.134E-06 0.177E-06 0.663E-22
CGA:   8    -0.593379018752E+03   -0.89957E-06   -0.89771E-06  1200   0.613E-06 0.433E-07
 gam= 0.246 trial= 0.647  step= 0.713 mean= 0.647
 final diagonalization
  32 F= -.59337902E+03 E0= -.59337902E+03  d E =-.277075E-03
 trial-energy change:   -0.000277  1 .order   -0.000278   -0.000338   -0.000218
 step:   0.4598(harm=  0.4598)  dis= 0.00879  next Energy=  -593.379217 (dE=-0.475E-03)
 bond charge predicted
 wavefunctions rotated
       N       E                     dE             d eps       ncg     rms          ort
 gam= 0.000 g(H,U,f)=  0.655E-01 0.655E-03 0.193E-17 ort(H,U,f) = 0.000E+00 0.000E+00 0.000E+00
SDA:   1    -0.593351529641E+03    0.27488E-01    0.00000E+00  1200   0.662E-01 0.000E+00
 gam= 0.000 trial= 0.651  step= 0.659 mean= 0.651
 gam= 0.294 g(H,U,f)=  0.190E-01 0.442E-03 0.215E-17 ort(H,U,f) = 0.480E-03-0.477E-03-0.206E-17
CGA:   2    -0.593373338911E+03   -0.21809E-01   -0.21809E-01  1200   0.195E-01 0.329E-05
 gam= 0.294 trial= 0.651  step= 0.512 mean= 0.651
 gam= 0.137 g(H,U,f)=  0.260E-02 0.700E-04 0.119E-19 ort(H,U,f) =-0.235E-04 0.206E-04 0.113E-18
CGA:   3    -0.593378325354E+03   -0.49864E-02   -0.49862E-02  1200   0.267E-02-0.291E-05
[...]
 gam= 0.209 trial= 0.616  step= 0.744 mean= 0.616
 gam= 0.331 g(H,U,f)=  0.221E-06 0.266E-07 0.187E-22 ort(H,U,f) =-0.115E-06 0.686E-07 0.415E-23
CGA:   6    -0.593384164758E+03   -0.28100E-06   -0.28456E-06  1200   0.248E-06-0.464E-07
 gam= 0.331 trial= 0.622  step= 0.720 mean= 0.622
 gam= 0.285 g(H,U,f)=  0.659E-07 0.465E-08 0.863E-24 ort(H,U,f) =-0.201E-07 0.194E-07 0.432E-23
CGA:   7    -0.593384164842E+03   -0.83740E-07   -0.83732E-07  1200   0.706E-07-0.692E-09
 gam= 0.285 trial= 0.627  step= 0.589 mean= 0.627
 gam= 0.216 g(H,U,f)=  0.144E-07 0.847E-09 0.134E-24 ort(H,U,f) = 0.922E-08 0.412E-08-0.825E-24
CGA:   8    -0.593384164862E+03   -0.20195E-07   -0.20736E-07  1200   0.152E-07 0.133E-07
 gam= 0.216 trial= 0.625  step= 0.702 mean= 0.625
 final diagonalization
 136 F= -.59338416E+03 E0= -.59338416E+03  d E =-.130393E-04
 ZBRENT: can't locate minimum, use default step
 trial-energy change:   -0.000013  1 .order   -0.000013   -0.000014   -0.000012
 step:   0.2888(harm=  0.5372)  dis= 0.00134  next Energy=  -593.384203 (dE=-0.515E-04)
 bond charge predicted
 wavefunctions rotated
       N       E                     dE             d eps       ncg     rms          ort
 gam= 0.000 g(H,U,f)=  0.409E-02 0.381E-04 0.336E-21 ort(H,U,f) = 0.000E+00 0.000E+00 0.000E+00
SDA:   1    -0.593382503946E+03    0.16609E-02    0.00000E+00  1200   0.413E-02 0.000E+00
 gam= 0.000 trial= 0.629  step= 0.634 mean= 0.629
 gam= 0.297 g(H,U,f)=  0.120E-02 0.241E-04 0.216E-19 ort(H,U,f) = 0.261E-04-0.266E-04 0.277E-20
CGA:   2    -0.593383814559E+03   -0.13106E-02   -0.13106E-02  1200   0.123E-02-0.502E-06
 gam= 0.297 trial= 0.629  step= 0.523 mean= 0.629
 gam= 0.136 g(H,U,f)=  0.163E-03 0.453E-05 0.406E-20 ort(H,U,f) =-0.179E-05 0.169E-05-0.983E-20
CGA:   3    -0.593384136070E+03   -0.32151E-03   -0.32151E-03  1200   0.168E-03-0.101E-06
 gam= 0.136 trial= 0.624  step= 0.525 mean= 0.624
 gam= 0.197 g(H,U,f)=  0.310E-04 0.193E-05 0.867E-21 ort(H,U,f) =-0.270E-05 0.296E-05 0.126E-20
CGA:   4    -0.593384180070E+03   -0.44000E-04   -0.44014E-04  1200   0.330E-04 0.261E-06
 gam= 0.197 trial= 0.619  step= 0.546 mean= 0.619
 gam= 0.208 g(H,U,f)=  0.589E-05 0.952E-06 0.223E-22 ort(H,U,f) =-0.142E-05 0.165E-05-0.179E-21
CGA:   5    -0.593384189078E+03   -0.90078E-05   -0.90164E-05  1200   0.684E-05 0.228E-06
 gam= 0.208 trial= 0.616  step= 0.704 mean= 0.616
 gam= 0.292 g(H,U,f)=  0.174E-05 0.257E-06 0.151E-21 ort(H,U,f) =-0.769E-06 0.641E-06 0.384E-22
CGA:   6    -0.593384191497E+03   -0.24193E-05   -0.24255E-05  1200   0.200E-05-0.128E-06
 gam= 0.292 trial= 0.620  step= 0.744 mean= 0.620
 gam= 0.302 g(H,U,f)=  0.554E-06 0.504E-07 0.936E-23 ort(H,U,f) =-0.193E-06 0.186E-06 0.404E-22
CGA:   7    -0.593384192226E+03   -0.72921E-06   -0.72999E-06  1200   0.604E-06-0.677E-08
 gam= 0.302 trial= 0.626  step= 0.678 mean= 0.626
 gam= 0.220 g(H,U,f)=  0.126E-06 0.705E-08 0.176E-23 ort(H,U,f) = 0.508E-08 0.363E-07-0.935E-23
CGA:   8    -0.593384192431E+03   -0.20478E-06   -0.20408E-06  1200   0.133E-06 0.414E-07
 gam= 0.220 trial= 0.629  step= 0.724 mean= 0.629
 final diagonalization
 137 F= -.59338419E+03 E0= -.59338419E+03  d E =-.406084E-04
 curvature:  -6.01 expect dE=-0.691E-03 dE for cont linesearch -0.737E-05
 ZBRENT: increasing intervall
 opt :   0.7221  next Energy=  -593.384195 (dE=-0.431E-04)
 bond charge predicted
 wavefunctions rotated
       N       E                     dE             d eps       ncg     rms          ort
 gam= 0.000 g(H,U,f)=  0.164E-01 0.152E-03 0.125E-20 ort(H,U,f) = 0.000E+00 0.000E+00 0.000E+00
SDA:   1    -0.593377440489E+03    0.67517E-02    0.00000E+00  1200   0.165E-01 0.000E+00
 gam= 0.000 trial= 0.634  step= 0.634 mean= 0.634
 gam= 0.297 g(H,U,f)=  0.482E-02 0.964E-04 0.807E-19 ort(H,U,f) = 0.105E-03-0.106E-03 0.106E-19
CGA:   2    -0.593382683140E+03   -0.52427E-02   -0.52427E-02  1200   0.491E-02-0.731E-06
 gam= 0.297 trial= 0.634  step= 0.523 mean= 0.634
 gam= 0.136 g(H,U,f)=  0.652E-03 0.182E-04 0.155E-19 ort(H,U,f) =-0.700E-05 0.680E-05-0.376E-19
CGA:   3    -0.593383969238E+03   -0.12861E-02   -0.12861E-02  1200   0.670E-03-0.203E-06
 gam= 0.136 trial= 0.628  step= 0.526 mean= 0.628
 gam= 0.197 g(H,U,f)=  0.124E-03 0.774E-05 0.322E-20 ort(H,U,f) =-0.114E-04 0.119E-04 0.474E-20
CGA:   4    -0.593384145386E+03   -0.17615E-03   -0.17617E-03  1200   0.132E-03 0.512E-06
 gam= 0.197 trial= 0.623  step= 0.548 mean= 0.623
 gam= 0.209 g(H,U,f)=  0.238E-04 0.380E-05 0.826E-22 ort(H,U,f) =-0.614E-05 0.658E-05-0.665E-21
CGA:   5    -0.593384181542E+03   -0.36156E-04   -0.36173E-04  1200   0.276E-04 0.448E-06
 gam= 0.209 trial= 0.619  step= 0.696 mean= 0.619
 gam= 0.285 g(H,U,f)=  0.682E-05 0.104E-05 0.562E-21 ort(H,U,f) =-0.284E-05 0.259E-05 0.147E-21
CGA:   6    -0.593384191152E+03   -0.96095E-05   -0.96190E-05  1200   0.786E-05-0.244E-06
 gam= 0.285 trial= 0.623  step= 0.748 mean= 0.623
 gam= 0.307 g(H,U,f)=  0.221E-05 0.208E-06 0.384E-22 ort(H,U,f) =-0.763E-06 0.754E-06 0.158E-21
CGA:   7    -0.593384194066E+03   -0.29145E-05   -0.29149E-05  1200   0.241E-05-0.923E-08
 gam= 0.307 trial= 0.629  step= 0.702 mean= 0.629
 gam= 0.229 g(H,U,f)=  0.525E-06 0.269E-07 0.738E-23 ort(H,U,f) =-0.521E-07 0.141E-06-0.381E-22
CGA:   8    -0.593384194916E+03   -0.84968E-06   -0.84640E-06  1200   0.552E-06 0.890E-07
 gam= 0.229 trial= 0.633  step= 0.728 mean= 0.633
 final diagonalization
 138 F= -.59338419E+03 E0= -.59338419E+03  d E =-.430931E-04
 curvature:  -2.01 expect dE=-0.500E-03 dE for cont linesearch -0.182E-05
 ZBRENT: bracketing found
 ZBRENT: interpolating
 opt :   0.5219  next Energy=  -593.384202 (dE=-0.505E-04)
 bond charge predicted
 wavefunctions rotated
       N       E                     dE             d eps       ncg     rms          ort
 gam= 0.000 g(H,U,f)=  0.349E-02 0.326E-04 0.108E-21 ort(H,U,f) = 0.000E+00 0.000E+00 0.000E+00
SDA:   1    -0.593382760833E+03    0.14332E-02    0.00000E+00  1200   0.352E-02 0.000E+00
 gam= 0.000 trial= 0.638  step= 0.635 mean= 0.638
 gam= 0.297 g(H,U,f)=  0.103E-02 0.204E-04 0.185E-19 ort(H,U,f) = 0.232E-04-0.227E-04 0.136E-20
CGA:   2    -0.593383879969E+03   -0.11191E-02   -0.11191E-02  1200   0.105E-02 0.553E-06
 gam= 0.297 trial= 0.638  step= 0.523 mean= 0.638
 gam= 0.137 g(H,U,f)=  0.139E-03 0.385E-05 0.329E-20 ort(H,U,f) =-0.132E-05 0.142E-05-0.790E-20
CGA:   3    -0.593384154087E+03   -0.27412E-03   -0.27412E-03  1200   0.143E-03 0.106E-06
 gam= 0.137 trial= 0.632  step= 0.525 mean= 0.632
 gam= 0.200 g(H,U,f)=  0.270E-04 0.164E-05 0.746E-21 ort(H,U,f) =-0.274E-05 0.251E-05 0.105E-20
CGA:   4    -0.593384191755E+03   -0.37669E-04   -0.37656E-04  1200   0.286E-04-0.229E-06
 gam= 0.200 trial= 0.627  step= 0.550 mean= 0.627
 gam= 0.208 g(H,U,f)=  0.516E-05 0.799E-06 0.242E-22 ort(H,U,f) =-0.160E-05 0.139E-05-0.172E-21
CGA:   5    -0.593384199631E+03   -0.78757E-05   -0.78680E-05  1200   0.596E-05-0.211E-06
 gam= 0.208 trial= 0.623  step= 0.668 mean= 0.623
 gam= 0.262 g(H,U,f)=  0.133E-05 0.232E-06 0.107E-21 ort(H,U,f) =-0.444E-06 0.564E-06 0.245E-22
CGA:   6    -0.593384201609E+03   -0.19780E-05   -0.19751E-05  1200   0.156E-05 0.119E-06
 gam= 0.262 trial= 0.625  step= 0.755 mean= 0.625
 gam= 0.316 g(H,U,f)=  0.443E-06 0.503E-07 0.105E-22 ort(H,U,f) =-0.152E-06 0.168E-06 0.355E-22
CGA:   7    -0.593384202212E+03   -0.60282E-06   -0.60166E-06  1200   0.494E-06 0.155E-07
 gam= 0.316 trial= 0.631  step= 0.797 mean= 0.631
 gam= 0.289 g(H,U,f)=  0.138E-06 0.511E-08 0.362E-23 ort(H,U,f) =-0.706E-07 0.264E-07-0.128E-22
CGA:   8    -0.593384202407E+03   -0.19499E-06   -0.19866E-06  1200   0.143E-06-0.442E-07
 gam= 0.289 trial= 0.640  step= 0.677 mean= 0.640
 final diagonalization
 139 F= -.59338420E+03 E0= -.59338420E+03  d E =-.505839E-04
 curvature:  -8.15 expect dE=-0.117E-02 dE for cont linesearch -0.348E-08
 trial: gam= 0.41169 g(F)=  0.143E-03 g(S)=  0.000E+00 ort = 0.160E-05 (trialstep = 0.162E+00)
 search vector abs. value=  0.116E-02
 bond charge predicted
 wavefunctions rotated
       N       E                     dE             d eps       ncg     rms          ort
 gam= 0.000 g(H,U,f)=  0.412E-03 0.388E-05 0.720E-21 ort(H,U,f) = 0.000E+00 0.000E+00 0.000E+00
SDA:   1    -0.593384050436E+03    0.15178E-03    0.00000E+00  1200   0.416E-03 0.000E+00
 gam= 0.000 trial= 0.642  step= 0.632 mean= 0.642
 gam= 0.305 g(H,U,f)=  0.124E-03 0.323E-05 0.440E-20 ort(H,U,f) = 0.304E-05-0.297E-05-0.177E-20
CGA:   2    -0.593384181920E+03   -0.13148E-03   -0.13148E-03  1200   0.127E-03 0.740E-07
 gam= 0.305 trial= 0.641  step= 0.522 mean= 0.641
 gam= 0.144 g(H,U,f)=  0.178E-04 0.484E-06 0.638E-21 ort(H,U,f) =-0.325E-06 0.649E-07-0.148E-20
CGA:   3    -0.593384215103E+03   -0.33183E-04   -0.33167E-04  1200   0.182E-04-0.260E-06
 gam= 0.144 trial= 0.635  step= 0.521 mean= 0.635
 gam= 0.195 g(H,U,f)=  0.333E-05 0.222E-06 0.135E-21 ort(H,U,f) =-0.274E-06 0.292E-06 0.196E-21
CGA:   4    -0.593384219847E+03   -0.47438E-05   -0.47448E-05  1200   0.355E-05 0.182E-07
 gam= 0.195 trial= 0.629  step= 0.567 mean= 0.629
 gam= 0.211 g(H,U,f)=  0.657E-06 0.917E-07 0.361E-23 ort(H,U,f) =-0.190E-06 0.165E-06-0.283E-22
CGA:   5    -0.593384220855E+03   -0.10083E-05   -0.10077E-05  1200   0.748E-06-0.253E-07
 gam= 0.211 trial= 0.626  step= 0.720 mean= 0.626
 gam= 0.304 g(H,U,f)=  0.205E-06 0.223E-07 0.276E-22 ort(H,U,f) =-0.929E-07 0.580E-07 0.654E-23
CGA:   6    -0.593384221121E+03   -0.26554E-06   -0.26743E-06  1200   0.228E-06-0.349E-07
 gam= 0.304 trial= 0.631  step= 0.713 mean= 0.631
 gam= 0.277 g(H,U,f)=  0.577E-07 0.547E-08 0.340E-23 ort(H,U,f) =-0.146E-07 0.178E-07 0.104E-22
CGA:   7    -0.593384221198E+03   -0.77442E-07   -0.77433E-07  1200   0.631E-07 0.318E-08
 gam= 0.277 trial= 0.635  step= 0.620 mean= 0.635
 gam= 0.217 g(H,U,f)=  0.129E-07 0.815E-09 0.240E-25 ort(H,U,f) = 0.622E-08 0.352E-08 0.528E-24
CGA:   8    -0.593384221218E+03   -0.19802E-07   -0.19844E-07  1200   0.137E-07 0.974E-08
 gam= 0.217 trial= 0.634  step= 0.693 mean= 0.634
 final diagonalization
 140 F= -.59338422E+03 E0= -.59338422E+03  d E =-.188112E-04
 trial-energy change:   -0.000019  1 .order   -0.000019   -0.000023   -0.000014
 step:   0.4140(harm=  0.4140)  dis= 0.00108  next Energy=  -593.384232 (dE=-0.298E-04)
 bond charge predicted
 wavefunctions rotated
       N       E                     dE             d eps       ncg     rms          ort
 gam= 0.000 g(H,U,f)=  0.996E-03 0.940E-05 0.139E-20 ort(H,U,f) = 0.000E+00 0.000E+00 0.000E+00
SDA:   1    -0.593383819939E+03    0.40126E-03    0.00000E+00  1200   0.101E-02 0.000E+00
 gam= 0.000 trial= 0.637  step= 0.631 mean= 0.637
 gam= 0.305 g(H,U,f)=  0.299E-03 0.779E-05 0.987E-20 ort(H,U,f) = 0.729E-05-0.718E-05-0.367E-20
CGA:   2    -0.593384137438E+03   -0.31750E-03   -0.31750E-03  1200   0.307E-03 0.109E-06
 gam= 0.305 trial= 0.637  step= 0.522 mean= 0.637
 gam= 0.143 g(H,U,f)=  0.426E-04 0.117E-05 0.142E-20 ort(H,U,f) =-0.573E-06 0.163E-06-0.336E-20
CGA:   3    -0.593384217615E+03   -0.80177E-04   -0.80153E-04  1200   0.438E-04-0.409E-06
 gam= 0.143 trial= 0.631  step= 0.523 mean= 0.631
 gam= 0.193 g(H,U,f)=  0.791E-05 0.537E-06 0.289E-21 ort(H,U,f) =-0.674E-06 0.707E-06 0.424E-21
CGA:   4    -0.593384229056E+03   -0.11441E-04   -0.11443E-04  1200   0.845E-05 0.323E-07
 gam= 0.193 trial= 0.626  step= 0.568 mean= 0.626
 gam= 0.214 g(H,U,f)=  0.158E-05 0.223E-06 0.810E-23 ort(H,U,f) =-0.440E-06 0.399E-06-0.621E-22
CGA:   5    -0.593384231456E+03   -0.23996E-05   -0.23989E-05  1200   0.181E-05-0.406E-07
 gam= 0.214 trial= 0.623  step= 0.712 mean= 0.623
 gam= 0.297 g(H,U,f)=  0.482E-06 0.552E-07 0.586E-22 ort(H,U,f) =-0.196E-06 0.144E-06 0.140E-22
CGA:   6    -0.593384232093E+03   -0.63703E-06   -0.63919E-06  1200   0.537E-06-0.519E-07
 gam= 0.297 trial= 0.627  step= 0.727 mean= 0.627
 gam= 0.291 g(H,U,f)=  0.143E-06 0.133E-07 0.780E-23 ort(H,U,f) =-0.374E-07 0.433E-07 0.229E-22
CGA:   7    -0.593384232283E+03   -0.18966E-06   -0.18948E-06  1200   0.156E-06 0.596E-08
 gam= 0.291 trial= 0.632  step= 0.656 mean= 0.632
 gam= 0.223 g(H,U,f)=  0.330E-07 0.170E-08 0.117E-25 ort(H,U,f) = 0.884E-08 0.750E-08 0.561E-24
CGA:   8    -0.593384232335E+03   -0.51979E-07   -0.51743E-07  1200   0.347E-07 0.163E-07
 gam= 0.223 trial= 0.634  step= 0.737 mean= 0.634
 final diagonalization
 141 F= -.59338423E+03 E0= -.59338423E+03  d E =-.299279E-04
 curvature:  -1.67 expect dE=-0.142E-03 dE for cont linesearch -0.706E-09
 trial: gam= 0.60997 g(F)=  0.848E-04 g(S)=  0.000E+00 ort = 0.701E-06 (trialstep = 0.213E+00)
 search vector abs. value=  0.518E-03
 bond charge predicted
 wavefunctions rotated
       N       E                     dE             d eps       ncg     rms          ort
 gam= 0.000 g(H,U,f)=  0.278E-03 0.240E-05 0.392E-20 ort(H,U,f) = 0.000E+00 0.000E+00 0.000E+00
SDA:   1    -0.593384131236E+03    0.10105E-03    0.00000E+00  1200   0.281E-03 0.000E+00
 gam= 0.000 trial= 0.639  step= 0.628 mean= 0.639
 gam= 0.309 g(H,U,f)=  0.850E-04 0.163E-05 0.805E-20 ort(H,U,f) = 0.246E-05-0.161E-05-0.555E-20
CGA:   2    -0.593384219414E+03   -0.88178E-04   -0.88182E-04  1200   0.867E-04 0.855E-06
 gam= 0.309 trial= 0.638  step= 0.519 mean= 0.638
 gam= 0.145 g(H,U,f)=  0.122E-04 0.368E-06 0.527E-21 ort(H,U,f) =-0.609E-06 0.785E-07-0.164E-20
CGA:   3    -0.593384242017E+03   -0.22604E-04   -0.22572E-04  1200   0.126E-04-0.530E-06
 gam= 0.145 trial= 0.632  step= 0.519 mean= 0.632
 gam= 0.187 g(H,U,f)=  0.223E-05 0.133E-06 0.392E-22 ort(H,U,f) =-0.280E-06 0.207E-06 0.786E-22
CGA:   4    -0.593384245272E+03   -0.32547E-05   -0.32508E-05  1200   0.236E-05-0.733E-07
 gam= 0.187 trial= 0.627  step= 0.588 mean= 0.627
 gam= 0.230 g(H,U,f)=  0.484E-06 0.585E-07 0.271E-22 ort(H,U,f) =-0.222E-06 0.104E-06-0.449E-22
CGA:   5    -0.593384245964E+03   -0.69185E-06   -0.68990E-06  1200   0.543E-06-0.118E-06
 gam= 0.230 trial= 0.625  step= 0.634 mean= 0.625
 gam= 0.243 g(H,U,f)=  0.115E-06 0.170E-07 0.860E-23 ort(H,U,f) =-0.305E-07 0.430E-07-0.947E-23
CGA:   6    -0.593384246127E+03   -0.16345E-06   -0.16345E-06  1200   0.132E-06 0.126E-07
 gam= 0.243 trial= 0.625  step= 0.698 mean= 0.625
 gam= 0.292 g(H,U,f)=  0.341E-07 0.448E-08 0.238E-23 ort(H,U,f) =-0.263E-08 0.133E-07 0.332E-23
CGA:   7    -0.593384246175E+03   -0.47573E-07   -0.47176E-07  1200   0.385E-07 0.107E-07
 gam= 0.292 trial= 0.629  step= 0.835 mean= 0.629
 gam= 0.354 g(H,U,f)=  0.130E-07 0.652E-09 0.110E-24 ort(H,U,f) =-0.583E-08 0.250E-08-0.719E-24
CGA:   8    -0.593384246192E+03   -0.17083E-07   -0.17393E-07  1200   0.136E-07-0.333E-08
 gam= 0.354 trial= 0.639  step= 0.744 mean= 0.639
 final diagonalization
 142 F= -.59338425E+03 E0= -.59338425E+03  d E =-.138573E-04
 trial-energy change:   -0.000014  1 .order   -0.000014   -0.000018   -0.000010
 step:   0.4585(harm=  0.4585)  dis= 0.00073  next Energy=  -593.384252 (dE=-0.195E-04)
 reached required accuracy - stopping structural energy minimisation
Note: The following floating-point exceptions are signalling: IEEE_INVALID_FLAG
Note: The following floating-point exceptions are signalling: IEEE_INVALID_FLAG
Note: The following floating-point exceptions are signalling: IEEE_INVALID_FLAG
Note: The following floating-point exceptions are signalling: IEEE_INVALID_FLAG
Note: The following floating-point exceptions are signalling: IEEE_INVALID_FLAG
Note: The following floating-point exceptions are signalling: IEEE_INVALID_FLAG
Note: The following floating-point exceptions are signalling: IEEE_INVALID_FLAG
Note: The following floating-point exceptions are signalling: IEEE_INVALID_FLAG
Note: The following floating-point exceptions are signalling: IEEE_INVALID_FLAG
Note: The following floating-point exceptions are signalling: IEEE_INVALID_FLAG
Note: The following floating-point exceptions are signalling: IEEE_INVALID_FLAG
Note: The following floating-point exceptions are signalling: IEEE_INVALID_FLAG
Note: The following floating-point exceptions are signalling: IEEE_INVALID_FLAG
Note: The following floating-point exceptions are signalling: IEEE_INVALID_FLAG
Note: The following floating-point exceptions are signalling: IEEE_INVALID_FLAG
Note: The following floating-point exceptions are signalling: IEEE_INVALID_FLAG
Note: The following floating-point exceptions are signalling: IEEE_INVALID_FLAG
Note: The following floating-point exceptions are signalling: IEEE_INVALID_FLAG
Note: The following floating-point exceptions are signalling: IEEE_INVALID_FLAG
Note: The following floating-point exceptions are signalling: IEEE_INVALID_FLAG
Note: The following floating-point exceptions are signalling: IEEE_INVALID_FLAG
Note: The following floating-point exceptions are signalling: IEEE_INVALID_FLAG
Note: The following floating-point exceptions are signalling: IEEE_INVALID_FLAG
Note: The following floating-point exceptions are signalling: IEEE_INVALID_FLAG
Note: The following floating-point exceptions are signalling: IEEE_INVALID_FLAG
Note: The following floating-point exceptions are signalling: IEEE_INVALID_FLAG
Note: The following floating-point exceptions are signalling: IEEE_INVALID_FLAG
Note: The following floating-point exceptions are signalling: IEEE_INVALID_FLAG
Note: The following floating-point exceptions are signalling: IEEE_INVALID_FLAG
Note: The following floating-point exceptions are signalling: IEEE_INVALID_FLAG
Note: The following floating-point exceptions are signalling: IEEE_INVALID_FLAG
Note: The following floating-point exceptions are signalling: IEEE_INVALID_FLAG
Note: The following floating-point exceptions are signalling: IEEE_INVALID_FLAG
Note: The following floating-point exceptions are signalling: IEEE_INVALID_FLAG
Note: The following floating-point exceptions are signalling: IEEE_INVALID_FLAG
Note: The following floating-point exceptions are signalling: IEEE_INVALID_FLAG
Note: The following floating-point exceptions are signalling: IEEE_INVALID_FLAG
Note: The following floating-point exceptions are signalling: IEEE_INVALID_FLAG
Note: The following floating-point exceptions are signalling: IEEE_INVALID_FLAG
Note: The following floating-point exceptions are signalling: IEEE_INVALID_FLAG
Note: The following floating-point exceptions are signalling: IEEE_INVALID_FLAG
Note: The following floating-point exceptions are signalling: IEEE_INVALID_FLAG
Note: The following floating-point exceptions are signalling: IEEE_INVALID_FLAG
Note: The following floating-point exceptions are signalling: IEEE_INVALID_FLAG
Note: The following floating-point exceptions are signalling: IEEE_INVALID_FLAG
Note: The following floating-point exceptions are signalling: IEEE_INVALID_FLAG
Note: The following floating-point exceptions are signalling: IEEE_INVALID_FLAG
Note: The following floating-point exceptions are signalling: IEEE_INVALID_FLAG
Note: The following floating-point exceptions are signalling: IEEE_INVALID_FLAG
Note: The following floating-point exceptions are signalling: IEEE_INVALID_FLAG
Note: The following floating-point exceptions are signalling: IEEE_INVALID_FLAG
Note: The following floating-point exceptions are signalling: IEEE_INVALID_FLAG
Note: The following floating-point exceptions are signalling: IEEE_INVALID_FLAG
Note: The following floating-point exceptions are signalling: IEEE_INVALID_FLAG
Note: The following floating-point exceptions are signalling: IEEE_INVALID_FLAG
Note: The following floating-point exceptions are signalling: IEEE_INVALID_FLAG
Note: The following floating-point exceptions are signalling: IEEE_INVALID_FLAG
Note: The following floating-point exceptions are signalling: IEEE_INVALID_FLAG
Note: The following floating-point exceptions are signalling: IEEE_INVALID_FLAG
Note: The following floating-point exceptions are signalling: IEEE_INVALID_FLAG
Note: The following floating-point exceptions are signalling: IEEE_INVALID_FLAG
Note: The following floating-point exceptions are signalling: IEEE_INVALID_FLAG
Note: The following floating-point exceptions are signalling: IEEE_INVALID_FLAG
Note: The following floating-point exceptions are signalling: IEEE_INVALID_FLAG
