<?xml version="1.0" encoding="ISO-8859-1"?>
<modeling>
 <generator>
  <i name="program" type="string">vasp </i>
  <i name="version" type="string">6.3.1  </i>
  <i name="subversion" type="string">04May22 (build May 25 2022 13:42:54) complex                          parallel </i>
  <i name="platform" type="string">HPECrayEX_GCC </i>
  <i name="date" type="string">2022 09 14 </i>
  <i name="time" type="string">19:07:38 </i>
 </generator>
 <incar>
  <i type="string" name="SYSTEM">ortho-FASnI3</i>
  <i type="int" name="ISTART">     0</i>
  <i type="string" name="PREC">Accurate</i>
  <i type="string" name="ALGO">ALL</i>
  <i type="int" name="ISPIN">     1</i>
  <i type="int" name="NELM">   200</i>
  <i type="int" name="NELMIN">     8</i>
  <i type="int" name="IBRION">     2</i>
  <i name="EDIFF">      0.00000500</i>
  <i name="EDIFFG">     -0.01000000</i>
  <i type="int" name="NSW">  1000</i>
  <i type="int" name="ISIF">     0</i>
  <i type="int" name="ISYM">     0</i>
  <i name="ENCUT">    700.00000000</i>
  <i type="logical" name="LREAL"> F  </i>
  <i type="int" name="ISMEAR">     0</i>
  <i name="SIGMA">      0.05000000</i>
  <i type="logical" name="LWAVE"> F  </i>
  <i type="logical" name="LCHARG"> F  </i>
  <i type="logical" name="LASPH"> T  </i>
  <i type="string" name="METAGGA">R2SCAN</i>
 </incar>
 <primitive_cell>
  <structure name="primitive_cell" >
   <crystal>
    <varray name="basis" >
     <v>       8.83790000       0.00000000       0.00000000 </v>
     <v>       0.00000000       8.83790000       0.00000000 </v>
     <v>       0.00000000       0.00000000      12.40660000 </v>
    </varray>
    <i name="volume">    969.06062343 </i>
    <varray name="rec_basis" >
     <v>       0.11314905       0.00000000       0.00000000 </v>
     <v>       0.00000000       0.11314905       0.00000000 </v>
     <v>       0.00000000       0.00000000       0.08060226 </v>
    </varray>
   </crystal>
   <varray name="positions" >
    <v>       0.54448175       0.04467768       0.50413898 </v>
    <v>       0.00407225       0.50197924       0.45854008 </v>
    <v>       0.54949274       0.99887884       0.02407465 </v>
    <v>       0.00204883       0.50324083       0.05858063 </v>
    <v>       0.31774632       0.02541605       0.53458707 </v>
    <v>       0.51631658       0.82043070       0.53967397 </v>
    <v>       0.69904833       0.87906618       0.51004982 </v>
    <v>       0.38465435       0.20500646       0.50323727 </v>
    <v>       0.63005841       0.12679657       0.48188464 </v>
    <v>       0.92292718       0.39075972       0.59114613 </v>
    <v>       0.11566276       0.60140543       0.58423983 </v>
    <v>       0.15906412       0.66683465       0.45556589 </v>
    <v>       0.85201079       0.33492173       0.46684174 </v>
    <v>       0.99406276       0.50568972       0.37141809 </v>
    <v>       0.32456428       0.97930866       0.98950722 </v>
    <v>       0.53959119       0.85762245       0.89481153 </v>
    <v>       0.71906205       0.89746753       0.94561823 </v>
    <v>       0.37049094       0.09662577       0.09639598 </v>
    <v>       0.62809291       0.05377682       0.07893534 </v>
    <v>       0.86973638       0.56967672       0.93205183 </v>
    <v>       0.10383692       0.41040047       0.92567336 </v>
    <v>       0.19013948       0.37857519       0.04919853 </v>
    <v>       0.81336665       0.62703570       0.06043667 </v>
    <v>       0.01294029       0.51291330       0.14545377 </v>
    <v>       0.00000000       0.00000000       0.00835000 </v>
    <v>       0.50000000       0.50000000       0.00835000 </v>
    <v>       0.69870000       0.19870000       0.75040000 </v>
    <v>       0.30130000       0.80130000       0.75040000 </v>
    <v>       0.80130000       0.69870000       0.75040000 </v>
    <v>       0.19870000       0.30130000       0.75040000 </v>
    <v>       0.00000000       0.00000000       0.50970000 </v>
    <v>       0.50000000       0.50000000       0.50970000 </v>
    <v>       0.73403000       0.23403000       0.24900000 </v>
    <v>       0.26597000       0.76597000       0.24900000 </v>
    <v>       0.76597000       0.73403000       0.24900000 </v>
    <v>       0.23403000       0.26597000       0.24900000 </v>
    <v>       0.58782251       0.90449199       0.51735532 </v>
    <v>       0.40536407       0.09313139       0.51318501 </v>
    <v>       0.09835061       0.59665074       0.50359060 </v>
    <v>       0.92004550       0.40403258       0.51000710 </v>
    <v>       0.60524703       0.90729880       0.95186520 </v>
    <v>       0.40564567       0.02916877       0.03510013 </v>
    <v>       0.10429005       0.42551867       0.00697861 </v>
    <v>       0.88757035       0.57048246       0.01288915 </v>
    <v>       0.00000000       0.00000000       0.25380000 </v>
    <v>       0.50000000       0.50000000       0.25380000 </v>
    <v>       0.00000000       0.00000000       0.75370000 </v>
    <v>       0.50000000       0.50000000       0.75370000 </v>
   </varray>
  </structure>
  <varray name="primitive_index" >
   <v type="int" >        1 </v>
   <v type="int" >        2 </v>
   <v type="int" >        3 </v>
   <v type="int" >        4 </v>
   <v type="int" >        5 </v>
   <v type="int" >        6 </v>
   <v type="int" >        7 </v>
   <v type="int" >        8 </v>
   <v type="int" >        9 </v>
   <v type="int" >       10 </v>
   <v type="int" >       11 </v>
   <v type="int" >       12 </v>
   <v type="int" >       13 </v>
   <v type="int" >       14 </v>
   <v type="int" >       15 </v>
   <v type="int" >       16 </v>
   <v type="int" >       17 </v>
   <v type="int" >       18 </v>
   <v type="int" >       19 </v>
   <v type="int" >       20 </v>
   <v type="int" >       21 </v>
   <v type="int" >       22 </v>
   <v type="int" >       23 </v>
   <v type="int" >       24 </v>
   <v type="int" >       25 </v>
   <v type="int" >       26 </v>
   <v type="int" >       27 </v>
   <v type="int" >       28 </v>
   <v type="int" >       29 </v>
   <v type="int" >       30 </v>
   <v type="int" >       31 </v>
   <v type="int" >       32 </v>
   <v type="int" >       33 </v>
   <v type="int" >       34 </v>
   <v type="int" >       35 </v>
   <v type="int" >       36 </v>
   <v type="int" >       37 </v>
   <v type="int" >       38 </v>
   <v type="int" >       39 </v>
   <v type="int" >       40 </v>
   <v type="int" >       41 </v>
   <v type="int" >       42 </v>
   <v type="int" >       43 </v>
   <v type="int" >       44 </v>
   <v type="int" >       45 </v>
   <v type="int" >       46 </v>
   <v type="int" >       47 </v>
   <v type="int" >       48 </v>
  </varray>
 </primitive_cell>
 <kpoints>
  <generation param="Gamma">
   <v type="int" name="divisions">       3        3        2 </v>
   <v name="usershift">      0.00000000       0.00000000       0.00000000 </v>
   <v name="genvec1">      0.33333333       0.00000000       0.00000000 </v>
   <v name="genvec2">      0.00000000       0.33333333       0.00000000 </v>
   <v name="genvec3">      0.00000000       0.00000000       0.50000000 </v>
   <v name="shift">      0.00000000       0.00000000       0.00000000 </v>
  </generation>
  <varray name="kpointlist" >
   <v>       0.00000000       0.00000000       0.00000000 </v>
   <v>       0.33333333       0.00000000       0.00000000 </v>
   <v>       0.00000000       0.33333333       0.00000000 </v>
   <v>       0.33333333       0.33333333       0.00000000 </v>
   <v>      -0.33333333       0.33333333       0.00000000 </v>
   <v>       0.00000000       0.00000000       0.50000000 </v>
   <v>       0.33333333       0.00000000       0.50000000 </v>
   <v>       0.00000000       0.33333333       0.50000000 </v>
   <v>       0.33333333       0.33333333       0.50000000 </v>
   <v>      -0.33333333       0.33333333       0.50000000 </v>
  </varray>
  <varray name="weights" >
   <v>       0.05555556 </v>
   <v>       0.11111111 </v>
   <v>       0.11111111 </v>
   <v>       0.11111111 </v>
   <v>       0.11111111 </v>
   <v>       0.05555556 </v>
   <v>       0.11111111 </v>
   <v>       0.11111111 </v>
   <v>       0.11111111 </v>
   <v>       0.11111111 </v>
  </varray>
 </kpoints>
 <parameters>
  <separator name="general" >
   <i type="string" name="SYSTEM">ortho-FASnI3</i>
   <i type="logical" name="LCOMPAT"> F  </i>
  </separator>
  <separator name="electronic" >
   <i type="string" name="PREC">accura</i>
   <i name="ENMAX">    700.00000000</i>
   <i name="ENAUG">    644.87300000</i>
   <i name="EDIFF">      0.00000500</i>
   <i type="int" name="IALGO">    58</i>
   <i type="int" name="IWAVPR">    11</i>
   <i type="int" name="NBANDS">   120</i>
   <i type="int" name="NBANDSLOW">    -1</i>
   <i type="int" name="NBANDSHIGH">    -1</i>
   <i name="NELECT">    176.00000000</i>
   <i type="int" name="TURBO">     0</i>
   <i type="int" name="IRESTART">     0</i>
   <i type="int" name="NREBOOT">     0</i>
   <i type="int" name="NMIN">     0</i>
   <i name="EREF">      0.00000000</i>
   <separator name="electronic smearing" >
    <i type="int" name="ISMEAR">     0</i>
    <i name="SIGMA">      0.05000000</i>
    <i name="KSPACING">      0.50000000</i>
    <i type="logical" name="KGAMMA"> T  </i>
    <i type="logical" name="KBLOWUP"> T  </i>
   </separator>
   <separator name="electronic projectors" >
    <i type="logical" name="LREAL"> F  </i>
    <v name="ROPT">      0.00000000      0.00000000      0.00000000      0.00000000      0.00000000</v>
    <i type="int" name="LMAXPAW">  -100</i>
    <i type="int" name="LMAXMIX">     2</i>
    <i type="logical" name="NLSPLINE"> F  </i>
   </separator>
   <separator name="electronic startup" >
    <i type="int" name="ISTART">     0</i>
    <i type="int" name="ICHARG">     2</i>
    <i type="int" name="INIWAV">     1</i>
   </separator>
   <separator name="electronic spin" >
    <i type="int" name="ISPIN">     1</i>
    <i type="logical" name="LNONCOLLINEAR"> F  </i>
    <v name="MAGMOM">      1.00000000      1.00000000      1.00000000      1.00000000      1.00000000      1.00000000      1.00000000      1.00000000      1.00000000      1.00000000      1.00000000      1.00000000      1.00000000      1.00000000      1.00000000      1.00000000      1.00000000      1.00000000      1.00000000      1.00000000
      1.00000000      1.00000000      1.00000000      1.00000000      1.00000000      1.00000000      1.00000000      1.00000000      1.00000000      1.00000000      1.00000000      1.00000000      1.00000000      1.00000000      1.00000000      1.00000000      1.00000000      1.00000000      1.00000000      1.00000000
      1.00000000      1.00000000      1.00000000      1.00000000      1.00000000      1.00000000      1.00000000      1.00000000</v>
    <i name="NUPDOWN">     -1.00000000</i>
    <i type="logical" name="LSORBIT"> F  </i>
    <v name="SAXIS">      0.00000000      0.00000000      1.00000000</v>
    <i type="logical" name="LSPIRAL"> F  </i>
    <v name="QSPIRAL">      0.00000000      0.00000000      0.00000000</v>
    <i type="logical" name="LZEROZ"> F  </i>
   </separator>
   <separator name="electronic exchange-correlation" >
    <i type="logical" name="LASPH"> T  </i>
    <i type="logical" name="LMETAGGA"> F  </i>
   </separator>
   <separator name="electronic convergence" >
    <i type="int" name="NELM">   200</i>
    <i type="int" name="NELMDL">    -5</i>
    <i type="int" name="NELMIN">     8</i>
    <i name="ENINI">    700.00000000</i>
    <separator name="electronic convergence detail" >
     <i type="logical" name="LDIAG"> T  </i>
     <i type="logical" name="LSUBROT"> F  </i>
     <i name="WEIMIN">      0.00100000</i>
     <i name="EBREAK">      0.00000001</i>
     <i name="DEPER">      0.30000000</i>
     <i type="int" name="NRMM">     4</i>
     <i name="TIME">      0.40000000</i>
    </separator>
   </separator>
   <separator name="electronic mixer" >
    <i name="AMIX">      0.40000000</i>
    <i name="BMIX">      1.00000000</i>
    <i name="AMIN">      0.10000000</i>
    <i name="AMIX_MAG">      1.60000000</i>
    <i name="BMIX_MAG">      1.00000000</i>
    <separator name="electronic mixer details" >
     <i type="int" name="IMIX">     4</i>
     <i type="logical" name="MIXFIRST"> F  </i>
     <i type="int" name="MAXMIX">   -45</i>
     <i name="WC">    100.00000000</i>
     <i type="int" name="INIMIX">     1</i>
     <i type="int" name="MIXPRE">     1</i>
     <i type="int" name="MREMOVE">     5</i>
    </separator>
   </separator>
   <separator name="electronic dipolcorrection" >
    <i type="logical" name="LDIPOL"> F  </i>
    <i type="logical" name="LMONO"> F  </i>
    <i type="int" name="IDIPOL">     0</i>
    <i name="EPSILON">      1.00000000</i>
    <v name="DIPOL">   -100.00000000   -100.00000000   -100.00000000</v>
    <i name="EFIELD">      0.00000000</i>
   </separator>
  </separator>
  <separator name="grids" >
   <i type="int" name="NGX">    80</i>
   <i type="int" name="NGY">    80</i>
   <i type="int" name="NGZ">   108</i>
   <i type="int" name="NGXF">   160</i>
   <i type="int" name="NGYF">   160</i>
   <i type="int" name="NGZF">   216</i>
   <i type="logical" name="ADDGRID"> F  </i>
  </separator>
  <separator name="ionic" >
   <i type="int" name="NSW">  1000</i>
   <i type="int" name="IBRION">     2</i>
   <i type="int" name="MDALGO">     0</i>
   <i type="int" name="ISIF">     0</i>
   <i name="PSTRESS">      0.00000000</i>
   <i name="EDIFFG">     -0.01000000</i>
   <i type="int" name="NFREE">     1</i>
   <i name="POTIM">      0.50000000</i>
   <i name="SMASS">     -3.00000000</i>
   <i name="SCALEE">      1.00000000</i>
  </separator>
  <separator name="ionic md" >
   <i name="TEBEG">      0.00010000</i>
   <i name="TEEND">      0.00010000</i>
   <i type="int" name="NBLOCK">     1</i>
   <i type="int" name="KBLOCK">  1000</i>
   <i type="int" name="NPACO">   256</i>
   <i name="APACO">     10.00000000</i>
  </separator>
  <separator name="symmetry" >
   <i type="int" name="ISYM">     0</i>
   <i name="SYMPREC">      0.00001000</i>
  </separator>
  <separator name="dos" >
   <i type="int" name="LORBIT">     0</i>
   <v name="RWIGS">     -1.00000000     -1.00000000     -1.00000000     -1.00000000     -1.00000000</v>
   <i type="int" name="NEDOS">   301</i>
   <i name="EMIN">     10.00000000</i>
   <i name="EMAX">    -10.00000000</i>
   <i name="EFERMI">      0.00000000</i>
  </separator>
  <separator name="writing" >
   <i type="int" name="NWRITE">     2</i>
   <i type="logical" name="LWAVE"> F  </i>
   <i type="logical" name="LDOWNSAMPLE"> F  </i>
   <i type="logical" name="LCHARG"> F  </i>
   <i type="logical" name="LPARD"> F  </i>
   <i type="logical" name="LVTOT"> F  </i>
   <i type="logical" name="LVHAR"> F  </i>
   <i type="logical" name="LELF"> F  </i>
   <i type="logical" name="LOPTICS"> F  </i>
   <v name="STM">      0.00000000      0.00000000      0.00000000      0.00000000      0.00000000      0.00000000      0.00000000</v>
  </separator>
  <separator name="performance" >
   <i type="int" name="NPAR">     8</i>
   <i type="int" name="NSIM">     4</i>
   <i type="int" name="NBLK">    -1</i>
   <i type="logical" name="LPLANE"> T  </i>
   <i type="logical" name="LSCALAPACK"> T  </i>
   <i type="logical" name="LSCAAWARE"> F  </i>
   <i type="logical" name="LSCALU"> F  </i>
   <i type="logical" name="LASYNC"> F  </i>
   <i type="logical" name="LORBITALREAL"> F  </i>
  </separator>
  <separator name="miscellaneous" >
   <i type="int" name="IDIOT">     3</i>
   <i type="int" name="PHON_NSTRUCT">    -1</i>
   <i type="logical" name="LMUSIC"> F  </i>
   <v name="POMASS">     12.01100000      1.00000000    126.90400000     14.00100000    118.71000000</v>
   <v name="DARWINR">      0.00000000      0.00000000      0.00000000      0.00000000      0.00000000</v>
   <v name="DARWINV">      1.00000000      1.00000000      1.00000000      1.00000000      1.00000000</v>
   <i type="logical" name="LCORR"> T  </i>
  </separator>
  <i type="logical" name="GGA_COMPAT"> T  </i>
  <i type="logical" name="LBERRY"> F  </i>
  <i type="int" name="ICORELEVEL">     0</i>
  <i type="logical" name="LDAU"> F  </i>
  <i type="int" name="I_CONSTRAINED_M">     0</i>
  <separator name="electronic exchange-correlation" >
   <i type="string" name="GGA">--</i>
   <i type="int" name="VOSKOWN">     0</i>
   <i type="logical" name="LHFCALC"> F  </i>
   <i type="string" name="PRECFOCK"></i>
   <i type="logical" name="LSYMGRAD"> F  </i>
   <i type="logical" name="LHFONE"> F  </i>
   <i type="logical" name="LRHFCALC"> F  </i>
   <i type="logical" name="LTHOMAS"> F  </i>
   <i type="logical" name="LMODELHF"> F  </i>
   <i type="logical" name="LFOCKACE"> F  </i>
   <i name="ENCUT4O">     -1.00000000</i>
   <i type="int" name="EXXOEP">     0</i>
   <i type="int" name="FOURORBIT">     0</i>
   <i name="AEXX">      0.00000000</i>
   <i name="HFALPHA">      0.00000000</i>
   <i name="MCALPHA">      0.00000000</i>
   <i name="ALDAX">      1.00000000</i>
   <i name="AGGAX">      1.00000000</i>
   <i name="ALDAC">      1.00000000</i>
   <i name="AGGAC">      1.00000000</i>
   <i type="int" name="NKREDX">     1</i>
   <i type="int" name="NKREDY">     1</i>
   <i type="int" name="NKREDZ">     1</i>
   <i type="logical" name="SHIFTRED"> F  </i>
   <i type="logical" name="ODDONLY"> F  </i>
   <i type="logical" name="EVENONLY"> F  </i>
   <i type="int" name="LMAXFOCK">     0</i>
   <i type="int" name="NMAXFOCKAE">     0</i>
   <i type="logical" name="LFOCKAEDFT"> F  </i>
   <i name="HFSCREEN">      0.00000000</i>
   <i name="HFSCREENC">      0.00000000</i>
   <i type="int" name="NBANDSGWLOW">     0</i>
  </separator>
  <separator name="vdW DFT" >
   <i type="logical" name="LUSE_VDW"> F  </i>
   <i name="Zab_VDW">     -0.84910000</i>
   <i name="PARAM1">      0.12340000</i>
   <i name="PARAM2">      1.00000000</i>
   <i name="PARAM3">      0.00000000</i>
  </separator>
  <separator name="model GW" >
   <i type="int" name="MODEL_GW">     0</i>
   <i name="MODEL_EPS0">     12.11325779</i>
   <i name="MODEL_ALPHA">      1.00000000</i>
  </separator>
  <separator name="linear response parameters" >
   <i type="logical" name="LEPSILON"> F  </i>
   <i type="logical" name="LRPA"> F  </i>
   <i type="logical" name="LNABLA"> F  </i>
   <i type="logical" name="LVEL"> F  </i>
   <i name="CSHIFT">      0.10000000</i>
   <i name="OMEGAMAX">     -1.00000000</i>
   <i name="DEG_THRESHOLD">      0.00200000</i>
   <i name="RTIME">     -0.10000000</i>
   <i name="WPLASMAI">      0.00000000</i>
   <v name="DFIELD">      0.00000000      0.00000000      0.00000000</v>
   <v name="WPLASMA">      0.00000000      0.00000000      0.00000000      0.00000000      0.00000000      0.00000000      0.00000000      0.00000000      0.00000000</v>
  </separator>
  <separator name="orbital magnetization" >
   <i type="logical" name="NUCIND"> F  </i>
   <v name="MAGPOS">      0.00000000      0.00000000      0.00000000</v>
   <i type="logical" name="LNICSALL"> T  </i>
   <i type="logical" name="ORBITALMAG"> F  </i>
   <i type="logical" name="LMAGBLOCH"> F  </i>
   <i type="logical" name="LCHIMAG"> F  </i>
   <i type="logical" name="LGAUGE"> T  </i>
   <i type="int" name="MAGATOM">     0</i>
   <v name="MAGDIPOL">      0.00000000      0.00000000      0.00000000</v>
   <v name="AVECCONST">      0.00000000      0.00000000      0.00000000</v>
  </separator>
  <separator name="response functions" >
   <i type="logical" name="LFINITE_TEMPERATURE"> F  </i>
   <i type="logical" name="LADDER"> F  </i>
   <i type="logical" name="LRPAFORCE"> F  </i>
   <i type="logical" name="LFXC"> F  </i>
   <i type="logical" name="LHARTREE"> T  </i>
   <i type="int" name="IBSE">     0</i>
   <v type="int" name="KPOINT">    -1     0     0     0</v>
   <i type="logical" name="LTCTC"> F  </i>
   <i type="logical" name="LTCTE"> F  </i>
   <i type="logical" name="LTETE"> F  </i>
   <i type="logical" name="LTRIPLET"> F  </i>
   <i type="logical" name="LFXCEPS"> F  </i>
   <i type="logical" name="LFXHEG"> F  </i>
   <i type="int" name="NATURALO">     2</i>
   <i type="logical" name="LHOLEGF"> F  </i>
   <i type="logical" name="L2ORDER"> F  </i>
   <i type="logical" name="LDMP1"> F  </i>
   <i type="logical" name="LMP2LT"> F  </i>
   <i type="logical" name="LSMP2LT"> F  </i>
   <i type="logical" name="LGWLF"> F  </i>
   <i name="ENCUTGW">     -2.00000000</i>
   <i name="ENCUTGWSOFT">     -2.00000000</i>
   <i name="ENCUTLF">     -1.00000000</i>
   <i type="logical" name="LESF_SPLINES"> F  </i>
   <i type="int" name="LMAXMP2">    -1</i>
   <i name="SCISSOR">      0.00000000</i>
   <i type="int" name="NOMEGA">     0</i>
   <i type="int" name="NOMEGAR">     0</i>
   <i type="int" name="NBANDSGW">    -1</i>
   <i type="int" name="NBANDSO">    -1</i>
   <i type="int" name="NBANDSV">    -1</i>
   <i type="int" name="NELMGW">     1</i>
   <i type="int" name="NELMHF">     1</i>
   <i type="int" name="DIM">     3</i>
   <i type="int" name="IESPILON">     4</i>
   <i type="int" name="ANTIRES">     0</i>
   <i name="OMEGAMAX">    -30.00000000</i>
   <i name="OMEGAMIN">    -30.00000000</i>
   <i name="OMEGATL">   -200.00000000</i>
   <i type="int" name="OMEGAGRID">     0</i>
   <i name="CSHIFT">     -0.10000000</i>
   <i type="logical" name="LSELFENERGY"> F  </i>
   <i type="logical" name="LSPECTRAL"> F  </i>
   <i type="logical" name="LSPECTRALGW"> F  </i>
   <i type="logical" name="LSINGLES"> F  </i>
   <i type="logical" name="LFERMIGW"> F  </i>
   <i type="logical" name="ODDONLYGW"> F  </i>
   <i type="logical" name="EVENONLYGW"> F  </i>
   <i type="int" name="NKREDLFX">     1</i>
   <i type="int" name="NKREDLFY">     1</i>
   <i type="int" name="NKREDLFZ">     1</i>
   <i type="int" name="MAXMEM">  2800</i>
   <i type="int" name="TELESCOPE">     0</i>
   <i type="int" name="NTAUPAR">    -1</i>
   <i type="int" name="NOMEGAPAR">    -1</i>
   <i name="DAMP_NEWTON">      0.80000001</i>
   <i name="LAMBDA">      1.00000000</i>
  </separator>
  <separator name="External order field" >
   <i name="OFIELD_KAPPA">      0.00000000</i>
   <v name="OFIELD_K">      0.00000000      0.00000000      0.00000000</v>
   <i name="OFIELD_Q6_NEAR">      0.00000000</i>
   <i name="OFIELD_Q6_FAR">      0.00000000</i>
   <i name="OFIELD_A">      0.00000000</i>
  </separator>
  <separator name="optional k-points parameters" >
   <i type="int" name="KPOINTS_OPT_MODE">     1</i>
   <i type="logical" name="LKPOINTS_OPT"> F  </i>
  </separator>
 </parameters>
 <atominfo>
  <atoms>      48 </atoms>
  <types>       5 </types>
  <array name="atoms" >
   <dimension dim="1">ion</dimension>
   <field type="string">element</field>
   <field type="int">atomtype</field>
   <set>
    <rc><c>C </c><c>   1</c></rc>
    <rc><c>C </c><c>   1</c></rc>
    <rc><c>C </c><c>   1</c></rc>
    <rc><c>C </c><c>   1</c></rc>
    <rc><c>H </c><c>   2</c></rc>
    <rc><c>H </c><c>   2</c></rc>
    <rc><c>H </c><c>   2</c></rc>
    <rc><c>H </c><c>   2</c></rc>
    <rc><c>H </c><c>   2</c></rc>
    <rc><c>H </c><c>   2</c></rc>
    <rc><c>H </c><c>   2</c></rc>
    <rc><c>H </c><c>   2</c></rc>
    <rc><c>H </c><c>   2</c></rc>
    <rc><c>H </c><c>   2</c></rc>
    <rc><c>H </c><c>   2</c></rc>
    <rc><c>H </c><c>   2</c></rc>
    <rc><c>H </c><c>   2</c></rc>
    <rc><c>H </c><c>   2</c></rc>
    <rc><c>H </c><c>   2</c></rc>
    <rc><c>H </c><c>   2</c></rc>
    <rc><c>H </c><c>   2</c></rc>
    <rc><c>H </c><c>   2</c></rc>
    <rc><c>H </c><c>   2</c></rc>
    <rc><c>H </c><c>   2</c></rc>
    <rc><c>I </c><c>   3</c></rc>
    <rc><c>I </c><c>   3</c></rc>
    <rc><c>I </c><c>   3</c></rc>
    <rc><c>I </c><c>   3</c></rc>
    <rc><c>I </c><c>   3</c></rc>
    <rc><c>I </c><c>   3</c></rc>
    <rc><c>I </c><c>   3</c></rc>
    <rc><c>I </c><c>   3</c></rc>
    <rc><c>I </c><c>   3</c></rc>
    <rc><c>I </c><c>   3</c></rc>
    <rc><c>I </c><c>   3</c></rc>
    <rc><c>I </c><c>   3</c></rc>
    <rc><c>N </c><c>   4</c></rc>
    <rc><c>N </c><c>   4</c></rc>
    <rc><c>N </c><c>   4</c></rc>
    <rc><c>N </c><c>   4</c></rc>
    <rc><c>N </c><c>   4</c></rc>
    <rc><c>N </c><c>   4</c></rc>
    <rc><c>N </c><c>   4</c></rc>
    <rc><c>N </c><c>   4</c></rc>
    <rc><c>Sn</c><c>   5</c></rc>
    <rc><c>Sn</c><c>   5</c></rc>
    <rc><c>Sn</c><c>   5</c></rc>
    <rc><c>Sn</c><c>   5</c></rc>
   </set>
  </array>
  <array name="atomtypes" >
   <dimension dim="1">type</dimension>
   <field type="int">atomspertype</field>
   <field type="string">element</field>
   <field>mass</field>
   <field>valence</field>
   <field type="string">pseudopotential</field>
   <set>
    <rc><c>   4</c><c>C </c><c>     12.01100000</c><c>      4.00000000</c><c>  PAW_PBE C 08Apr2002                   </c></rc>
    <rc><c>  20</c><c>H </c><c>      1.00000000</c><c>      1.00000000</c><c>  PAW_PBE H 15Jun2001                   </c></rc>
    <rc><c>  12</c><c>I </c><c>    126.90400000</c><c>      7.00000000</c><c>  PAW_PBE I 08Apr2002                   </c></rc>
    <rc><c>   8</c><c>N </c><c>     14.00100000</c><c>      5.00000000</c><c>  PAW_PBE N 08Apr2002                   </c></rc>
    <rc><c>   4</c><c>Sn</c><c>    118.71000000</c><c>      4.00000000</c><c>  PAW_PBE Sn 08Apr2002                  </c></rc>
   </set>
  </array>
 </atominfo>
 <structure name="initialpos" >
  <crystal>
   <varray name="basis" >
    <v>       8.83790000       0.00000000       0.00000000 </v>
    <v>       0.00000000       8.83790000       0.00000000 </v>
    <v>       0.00000000       0.00000000      12.40660000 </v>
   </varray>
   <i name="volume">    969.06062343 </i>
   <varray name="rec_basis" >
    <v>       0.11314905       0.00000000       0.00000000 </v>
    <v>       0.00000000       0.11314905       0.00000000 </v>
    <v>       0.00000000       0.00000000       0.08060226 </v>
   </varray>
  </crystal>
  <varray name="positions" >
   <v>       0.54448175       0.04467768       0.50413898 </v>
   <v>       0.00407225       0.50197924       0.45854008 </v>
   <v>       0.54949274       0.99887884       0.02407465 </v>
   <v>       0.00204883       0.50324083       0.05858063 </v>
   <v>       0.31774632       0.02541605       0.53458707 </v>
   <v>       0.51631658       0.82043070       0.53967397 </v>
   <v>       0.69904833       0.87906618       0.51004982 </v>
   <v>       0.38465435       0.20500646       0.50323727 </v>
   <v>       0.63005841       0.12679657       0.48188464 </v>
   <v>       0.92292718       0.39075972       0.59114613 </v>
   <v>       0.11566276       0.60140543       0.58423983 </v>
   <v>       0.15906412       0.66683465       0.45556589 </v>
   <v>       0.85201079       0.33492173       0.46684174 </v>
   <v>       0.99406276       0.50568972       0.37141809 </v>
   <v>       0.32456428       0.97930866       0.98950722 </v>
   <v>       0.53959119       0.85762245       0.89481153 </v>
   <v>       0.71906205       0.89746753       0.94561823 </v>
   <v>       0.37049094       0.09662577       0.09639598 </v>
   <v>       0.62809291       0.05377682       0.07893534 </v>
   <v>       0.86973638       0.56967672       0.93205183 </v>
   <v>       0.10383692       0.41040047       0.92567336 </v>
   <v>       0.19013948       0.37857519       0.04919853 </v>
   <v>       0.81336665       0.62703570       0.06043667 </v>
   <v>       0.01294029       0.51291330       0.14545377 </v>
   <v>       0.00000000       0.00000000       0.00835000 </v>
   <v>       0.50000000       0.50000000       0.00835000 </v>
   <v>       0.69870000       0.19870000       0.75040000 </v>
   <v>       0.30130000       0.80130000       0.75040000 </v>
   <v>       0.80130000       0.69870000       0.75040000 </v>
   <v>       0.19870000       0.30130000       0.75040000 </v>
   <v>       0.00000000       0.00000000       0.50970000 </v>
   <v>       0.50000000       0.50000000       0.50970000 </v>
   <v>       0.73403000       0.23403000       0.24900000 </v>
   <v>       0.26597000       0.76597000       0.24900000 </v>
   <v>       0.76597000       0.73403000       0.24900000 </v>
   <v>       0.23403000       0.26597000       0.24900000 </v>
   <v>       0.58782251       0.90449199       0.51735532 </v>
   <v>       0.40536407       0.09313139       0.51318501 </v>
   <v>       0.09835061       0.59665074       0.50359060 </v>
   <v>       0.92004550       0.40403258       0.51000710 </v>
   <v>       0.60524703       0.90729880       0.95186520 </v>
   <v>       0.40564567       0.02916877       0.03510013 </v>
   <v>       0.10429005       0.42551867       0.00697861 </v>
   <v>       0.88757035       0.57048246       0.01288915 </v>
   <v>       0.00000000       0.00000000       0.25380000 </v>
   <v>       0.50000000       0.50000000       0.25380000 </v>
   <v>       0.00000000       0.00000000       0.75370000 </v>
   <v>       0.50000000       0.50000000       0.75370000 </v>
  </varray>
  <varray name="selective"  type="logical" >
   <v type="logical" >  T  T  T </v>
   <v type="logical" >  T  T  T </v>
   <v type="logical" >  T  T  T </v>
   <v type="logical" >  T  T  T </v>
   <v type="logical" >  T  T  T </v>
   <v type="logical" >  T  T  T </v>
   <v type="logical" >  T  T  T </v>
   <v type="logical" >  T  T  T </v>
   <v type="logical" >  T  T  T </v>
   <v type="logical" >  T  T  T </v>
   <v type="logical" >  T  T  T </v>
   <v type="logical" >  T  T  T </v>
   <v type="logical" >  T  T  T </v>
   <v type="logical" >  T  T  T </v>
   <v type="logical" >  T  T  T </v>
   <v type="logical" >  T  T  T </v>
   <v type="logical" >  T  T  T </v>
   <v type="logical" >  T  T  T </v>
   <v type="logical" >  T  T  T </v>
   <v type="logical" >  T  T  T </v>
   <v type="logical" >  T  T  T </v>
   <v type="logical" >  T  T  T </v>
   <v type="logical" >  T  T  T </v>
   <v type="logical" >  T  T  T </v>
   <v type="logical" >  F  F  F </v>
   <v type="logical" >  F  F  F </v>
   <v type="logical" >  F  F  F </v>
   <v type="logical" >  F  F  F </v>
   <v type="logical" >  F  F  F </v>
   <v type="logical" >  F  F  F </v>
   <v type="logical" >  F  F  F </v>
   <v type="logical" >  F  F  F </v>
   <v type="logical" >  F  F  F </v>
   <v type="logical" >  F  F  F </v>
   <v type="logical" >  F  F  F </v>
   <v type="logical" >  F  F  F </v>
   <v type="logical" >  T  T  T </v>
   <v type="logical" >  T  T  T </v>
   <v type="logical" >  T  T  T </v>
   <v type="logical" >  T  T  T </v>
   <v type="logical" >  T  T  T </v>
   <v type="logical" >  T  T  T </v>
   <v type="logical" >  T  T  T </v>
   <v type="logical" >  T  T  T </v>
   <v type="logical" >  F  F  F </v>
   <v type="logical" >  F  F  F </v>
   <v type="logical" >  F  F  F </v>
   <v type="logical" >  F  F  F </v>
  </varray>
  <nose>
   <v>      -3.00000000       0.00000000       0.00010000       0.00010000 </v>
  </nose>
 </structure>
 <calculation>
  <scstep>
   <time name="total">   10.90   11.24</time>
   <energy>
    <i name="alphaZ">    119.23563490 </i>
    <i name="ewald">  -4662.53576697 </i>
    <i name="hartreedc">  -2096.94560636 </i>
    <i name="XCdc">   -172.38423133 </i>
    <i name="pawpsdc">   5935.95709371 </i>
    <i name="pawaedc">  -5630.49819540 </i>
    <i name="eentropy">     -0.01529778 </i>
    <i name="bandstr">    185.43488837 </i>
    <i name="atom">   7121.46799656 </i>
    <i name="e_fr_energy">    799.71651568 </i>
    <i name="e_wo_entrp">    799.73181346 </i>
    <i name="e_0_energy">    799.72416457 </i>
   </energy>
  </scstep>
  <scstep>
   <time name="total">   11.55   11.55</time>
   <energy>
    <i name="e_fr_energy">   -477.43891327 </i>
    <i name="e_wo_entrp">   -477.43828859 </i>
    <i name="e_0_energy">   -477.43860093 </i>
   </energy>
  </scstep>
  <scstep>
   <time name="total">   11.34   11.36</time>
   <energy>
    <i name="e_fr_energy">   -639.82144898 </i>
    <i name="e_wo_entrp">   -639.81973358 </i>
    <i name="e_0_energy">   -639.82059128 </i>
   </energy>
  </scstep>
  <scstep>
   <time name="total">   11.22   11.23</time>
   <energy>
    <i name="e_fr_energy">   -644.49782327 </i>
    <i name="e_wo_entrp">   -644.49642721 </i>
    <i name="e_0_energy">   -644.49712524 </i>
   </energy>
  </scstep>
  <scstep>
   <time name="total">   12.82   12.83</time>
   <energy>
    <i name="e_fr_energy">   -644.64188560 </i>
    <i name="e_wo_entrp">   -644.64032714 </i>
    <i name="e_0_energy">   -644.64110637 </i>
   </energy>
  </scstep>
  <scstep>
   <time name="total">   12.88   12.89</time>
   <energy>
    <i name="e_fr_energy">   -579.86901287 </i>
    <i name="e_wo_entrp">   -579.86901287 </i>
    <i name="e_0_energy">   -579.86901287 </i>
   </energy>
  </scstep>
  <scstep>
   <time name="total">   12.90   12.90</time>
   <energy>
    <i name="e_fr_energy">   -591.21463287 </i>
    <i name="e_wo_entrp">   -591.21463287 </i>
    <i name="e_0_energy">   -591.21463287 </i>
   </energy>
  </scstep>
  <scstep>
   <time name="total">   12.89   12.91</time>
   <energy>
    <i name="e_fr_energy">   -592.71487944 </i>
    <i name="e_wo_entrp">   -592.71487944 </i>
    <i name="e_0_energy">   -592.71487944 </i>
   </energy>
  </scstep>
  <scstep>
   <time name="total">   12.89   12.90</time>
   <energy>
    <i name="e_fr_energy">   -593.17318097 </i>
    <i name="e_wo_entrp">   -593.17318097 </i>
    <i name="e_0_energy">   -593.17318097 </i>
   </energy>
  </scstep>
  <scstep>
   <time name="total">   12.89   12.89</time>
   <energy>
    <i name="e_fr_energy">   -593.31209412 </i>
    <i name="e_wo_entrp">   -593.31209412 </i>
    <i name="e_0_energy">   -593.31209412 </i>
   </energy>
  </scstep>
  <scstep>
   <time name="total">   12.88   12.90</time>
   <energy>
    <i name="e_fr_energy">   -593.35610918 </i>
    <i name="e_wo_entrp">   -593.35610918 </i>
    <i name="e_0_energy">   -593.35610918 </i>
   </energy>
  </scstep>
  <scstep>
   <time name="total">   12.91   12.92</time>
   <energy>
    <i name="e_fr_energy">   -593.36728285 </i>
    <i name="e_wo_entrp">   -593.36728285 </i>
    <i name="e_0_energy">   -593.36728285 </i>
   </energy>
  </scstep>
  <scstep>
   <time name="total">   12.88   12.89</time>
   <energy>
    <i name="e_fr_energy">   -593.36996177 </i>
    <i name="e_wo_entrp">   -593.36996177 </i>
    <i name="e_0_energy">   -593.36996177 </i>
   </energy>
  </scstep>
  <scstep>
   <time name="total">   12.88   12.89</time>
   <energy>
    <i name="e_fr_energy">   -593.37061825 </i>
    <i name="e_wo_entrp">   -593.37061825 </i>
    <i name="e_0_energy">   -593.37061825 </i>
   </energy>
  </scstep>
  <scstep>
   <time name="total">   12.87   12.88</time>
   <energy>
    <i name="e_fr_energy">   -593.37077005 </i>
    <i name="e_wo_entrp">   -593.37077005 </i>
    <i name="e_0_energy">   -593.37077005 </i>
   </energy>
  </scstep>
  <scstep>
   <time name="total">   12.91   12.92</time>
   <energy>
    <i name="e_fr_energy">   -593.37080990 </i>
    <i name="e_wo_entrp">   -593.37080990 </i>
    <i name="e_0_energy">   -593.37080990 </i>
   </energy>
  </scstep>
  <scstep>
   <time name="total">   12.89   12.92</time>
   <energy>
    <i name="e_fr_energy">   -593.37082038 </i>
    <i name="e_wo_entrp">   -593.37082038 </i>
    <i name="e_0_energy">   -593.37082038 </i>
   </energy>
  </scstep>
  <scstep>
   <time name="total">   14.92   14.93</time>
   <energy>
    <i name="alphaZ">    119.23563490 </i>
    <i name="ewald">  -4662.53576697 </i>
    <i name="hartreedc">  -2325.51604582 </i>
    <i name="XCdc">   -141.98450885 </i>
    <i name="pawpsdc">  13111.62811467 </i>
    <i name="pawaedc"> -12811.66690958 </i>
    <i name="eentropy">     -0.00000000 </i>
    <i name="bandstr">  -1003.99933757 </i>
    <i name="atom">   7121.46799656 </i>
    <i name="e_fr_energy">   -593.37082267 </i>
    <i name="e_wo_entrp">   -593.37082267 </i>
    <i name="e_0_energy">   -593.37082267 </i>
   </energy>
  </scstep>
  <structure>
   <crystal>
    <varray name="basis" >
     <v>       8.83790000       0.00000000       0.00000000 </v>
     <v>       0.00000000       8.83790000       0.00000000 </v>
     <v>       0.00000000       0.00000000      12.40660000 </v>
    </varray>
    <i name="volume">    969.06062343 </i>
    <varray name="rec_basis" >
     <v>       0.11314905       0.00000000       0.00000000 </v>
     <v>       0.00000000       0.11314905       0.00000000 </v>
     <v>       0.00000000       0.00000000       0.08060226 </v>
    </varray>
   </crystal>
   <varray name="positions" >
    <v>       0.54448175       0.04467768       0.50413898 </v>
    <v>       0.00407225       0.50197924       0.45854008 </v>
    <v>       0.54949274       0.99887884       0.02407465 </v>
    <v>       0.00204883       0.50324083       0.05858063 </v>
    <v>       0.31774632       0.02541605       0.53458707 </v>
    <v>       0.51631658       0.82043070       0.53967397 </v>
    <v>       0.69904833       0.87906618       0.51004982 </v>
    <v>       0.38465435       0.20500646       0.50323727 </v>
    <v>       0.63005841       0.12679657       0.48188464 </v>
    <v>       0.92292718       0.39075972       0.59114613 </v>
    <v>       0.11566276       0.60140543       0.58423983 </v>
    <v>       0.15906412       0.66683465       0.45556589 </v>
    <v>       0.85201079       0.33492173       0.46684174 </v>
    <v>       0.99406276       0.50568972       0.37141809 </v>
    <v>       0.32456428       0.97930866       0.98950722 </v>
    <v>       0.53959119       0.85762245       0.89481153 </v>
    <v>       0.71906205       0.89746753       0.94561823 </v>
    <v>       0.37049094       0.09662577       0.09639598 </v>
    <v>       0.62809291       0.05377682       0.07893534 </v>
    <v>       0.86973638       0.56967672       0.93205183 </v>
    <v>       0.10383692       0.41040047       0.92567336 </v>
    <v>       0.19013948       0.37857519       0.04919853 </v>
    <v>       0.81336665       0.62703570       0.06043667 </v>
    <v>       0.01294029       0.51291330       0.14545377 </v>
    <v>       0.00000000       0.00000000       0.00835000 </v>
    <v>       0.50000000       0.50000000       0.00835000 </v>
    <v>       0.69870000       0.19870000       0.75040000 </v>
    <v>       0.30130000       0.80130000       0.75040000 </v>
    <v>       0.80130000       0.69870000       0.75040000 </v>
    <v>       0.19870000       0.30130000       0.75040000 </v>
    <v>       0.00000000       0.00000000       0.50970000 </v>
    <v>       0.50000000       0.50000000       0.50970000 </v>
    <v>       0.73403000       0.23403000       0.24900000 </v>
    <v>       0.26597000       0.76597000       0.24900000 </v>
    <v>       0.76597000       0.73403000       0.24900000 </v>
    <v>       0.23403000       0.26597000       0.24900000 </v>
    <v>       0.58782251       0.90449199       0.51735532 </v>
    <v>       0.40536407       0.09313139       0.51318501 </v>
    <v>       0.09835061       0.59665074       0.50359060 </v>
    <v>       0.92004550       0.40403258       0.51000710 </v>
    <v>       0.60524703       0.90729880       0.95186520 </v>
    <v>       0.40564567       0.02916877       0.03510013 </v>
    <v>       0.10429005       0.42551867       0.00697861 </v>
    <v>       0.88757035       0.57048246       0.01288915 </v>
    <v>       0.00000000       0.00000000       0.25380000 </v>
    <v>       0.50000000       0.50000000       0.25380000 </v>
    <v>       0.00000000       0.00000000       0.75370000 </v>
    <v>       0.50000000       0.50000000       0.75370000 </v>
   </varray>
  </structure>
  <varray name="forces" >
   <v>      -0.00329891      -0.01170549       0.00458715 </v>
   <v>      -0.01453648       0.01801492      -0.04161342 </v>
   <v>       0.04398585       0.03534381       0.02462922 </v>
   <v>       0.01463121      -0.00359724       0.01511465 </v>
   <v>       0.00607343       0.01503589      -0.01341507 </v>
   <v>       0.01453964       0.00879152      -0.02042042 </v>
   <v>      -0.01261009      -0.00314066       0.00102558 </v>
   <v>      -0.01675566      -0.00924946       0.01772116 </v>
   <v>      -0.00838280      -0.02092461       0.01757720 </v>
   <v>      -0.01283839       0.00250689       0.01285735 </v>
   <v>      -0.00292673      -0.00561446       0.02088803 </v>
   <v>       0.00225974      -0.00153430      -0.01004819 </v>
   <v>      -0.01018529       0.00877092      -0.00779409 </v>
   <v>       0.00295217       0.00001589       0.02719566 </v>
   <v>      -0.00326643       0.00872908      -0.00147994 </v>
   <v>       0.00606370       0.00098256       0.00798770 </v>
   <v>      -0.00483585      -0.00508540       0.00295931 </v>
   <v>       0.00036809      -0.00223664      -0.01537252 </v>
   <v>      -0.01928860      -0.00316997      -0.02515199 </v>
   <v>      -0.00434720       0.00719920      -0.02743300 </v>
   <v>       0.01187548      -0.00107136       0.00067485 </v>
   <v>      -0.00043048      -0.00402205       0.00096543 </v>
   <v>       0.00431722      -0.00121361      -0.02228083 </v>
   <v>      -0.00887667      -0.00246465      -0.03020118 </v>
   <v>      -0.03677113      -0.00582276      -0.03173403 </v>
   <v>      -0.04672076      -0.05843433       0.00573871 </v>
   <v>       0.13186268       0.12872049      -0.02850175 </v>
   <v>      -0.01570423      -0.01236045      -0.04822611 </v>
   <v>       0.04568748      -0.03413859      -0.25337240 </v>
   <v>       0.01873300      -0.04784208      -0.25292939 </v>
   <v>      -0.05784726      -0.03238726      -0.08862851 </v>
   <v>       0.02462969      -0.05093520      -0.09785248 </v>
   <v>       0.09225375       0.09631164       0.20913552 </v>
   <v>      -0.05684457      -0.03685475       0.19432087 </v>
   <v>      -0.09029247       0.11011756       0.27230320 </v>
   <v>       0.04798750      -0.03347152       0.23875487 </v>
   <v>       0.00711426       0.01824426      -0.00300426 </v>
   <v>       0.01596847      -0.01236650       0.00601409 </v>
   <v>      -0.00852961      -0.02131215       0.00018470 </v>
   <v>       0.00017506       0.01428543       0.01120958 </v>
   <v>      -0.00904768      -0.01585226      -0.01644408 </v>
   <v>      -0.02612839       0.00713213      -0.00156120 </v>
   <v>      -0.01617981       0.00309904       0.02129781 </v>
   <v>       0.01903477      -0.00314406       0.01529431 </v>
   <v>       0.01575413      -0.10859195      -0.10525687 </v>
   <v>       0.00827448       0.14708372      -0.20387639 </v>
   <v>      -0.11149000       0.16562208       0.07069104 </v>
   <v>       0.06359364      -0.24746328       0.14747014 </v>
  </varray>
  <energy>
   <i name="e_fr_energy">   -593.37082267 </i>
   <i name="e_wo_entrp">   -593.37082267 </i>
   <i name="e_0_energy">   -593.37082267 </i>
  </energy>
  <time name="totalsc">  233.39  233.93</time>
 </calculation>
 <calculation>
  <scstep>
   <time name="total">   12.89   12.89</time>
   <energy>
    <i name="alphaZ">    119.23563490 </i>
    <i name="ewald">  -4662.25487577 </i>
    <i name="hartreedc">  -2325.58266866 </i>
    <i name="XCdc">   -141.98350124 </i>
    <i name="pawpsdc">  13116.68064897 </i>
    <i name="pawaedc"> -12816.72008096 </i>
    <i name="eentropy">     -0.00000000 </i>
    <i name="bandstr">  -1004.20285467 </i>
    <i name="atom">   7121.46799656 </i>
    <i name="e_fr_energy">   -593.35970087 </i>
    <i name="e_wo_entrp">   -593.35970087 </i>
    <i name="e_0_energy">   -593.35970087 </i>
   </energy>
  </scstep>
  <scstep>
   <time name="total">   12.89   12.89</time>
   <energy>
    <i name="e_fr_energy">   -593.36763573 </i>
    <i name="e_wo_entrp">   -593.36763573 </i>
    <i name="e_0_energy">   -593.36763573 </i>
   </energy>
  </scstep>
  <scstep>
   <time name="total">   12.87   12.88</time>
   <energy>
    <i name="e_fr_energy">   -593.36968442 </i>
    <i name="e_wo_entrp">   -593.36968442 </i>
    <i name="e_0_energy">   -593.36968442 </i>
   </energy>
  </scstep>
  <scstep>
   <time name="total">   12.90   12.90</time>
   <energy>
    <i name="e_fr_energy">   -593.36998510 </i>
    <i name="e_wo_entrp">   -593.36998510 </i>
    <i name="e_0_energy">   -593.36998510 </i>
   </energy>
  </scstep>
  <scstep>
   <time name="total">   12.86   12.87</time>
   <energy>
    <i name="e_fr_energy">   -593.37004673 </i>
    <i name="e_wo_entrp">   -593.37004673 </i>
    <i name="e_0_energy">   -593.37004673 </i>
   </energy>
  </scstep>
  <scstep>
   <time name="total">   12.90   12.91</time>
   <energy>
    <i name="e_fr_energy">   -593.37006373 </i>
    <i name="e_wo_entrp">   -593.37006373 </i>
    <i name="e_0_energy">   -593.37006373 </i>
   </energy>
  </scstep>
  <scstep>
   <time name="total">   12.89   12.89</time>
   <energy>
    <i name="e_fr_energy">   -593.37006963 </i>
    <i name="e_wo_entrp">   -593.37006963 </i>
    <i name="e_0_energy">   -593.37006963 </i>
   </energy>
  </scstep>
  <scstep>
   <time name="total">   14.91   14.92</time>
   <energy>
    <i name="alphaZ">    119.23563490 </i>
    <i name="ewald">  -4662.25487577 </i>
    <i name="hartreedc">  -2325.76062324 </i>
    <i name="XCdc">   -141.96852886 </i>
    <i name="pawpsdc">  13112.98568168 </i>
    <i name="pawaedc"> -12813.02555560 </i>
    <i name="eentropy">     -0.00000000 </i>
    <i name="bandstr">  -1004.04980105 </i>
    <i name="atom">   7121.46799656 </i>
    <i name="e_fr_energy">   -593.37007138 </i>
    <i name="e_wo_entrp">   -593.37007138 </i>
    <i name="e_0_energy">   -593.37007138 </i>
   </energy>
  </scstep>
  <structure>
   <crystal>
    <varray name="basis" >
     <v>       8.83790000       0.00000000       0.00000000 </v>
     <v>       0.00000000       8.83790000       0.00000000 </v>
     <v>       0.00000000       0.00000000      12.40660000 </v>
    </varray>
    <i name="volume">    969.06062343 </i>
    <varray name="rec_basis" >
     <v>       0.11314905       0.00000000       0.00000000 </v>
     <v>       0.00000000       0.11314905       0.00000000 </v>
     <v>       0.00000000       0.00000000       0.08060226 </v>
    </varray>
   </crystal>
   <varray name="positions" >
    <v>       0.54446374       0.04461378       0.50415682 </v>
    <v>       0.00399290       0.50207758       0.45837827 </v>
    <v>       0.54973284       0.99907177       0.02417042 </v>
    <v>       0.00212869       0.50322120       0.05863940 </v>
    <v>       0.31777948       0.02549812       0.53453491 </v>
    <v>       0.51639595       0.82047869       0.53959456 </v>
    <v>       0.69897950       0.87904904       0.51005381 </v>
    <v>       0.38456289       0.20495597       0.50330617 </v>
    <v>       0.63001265       0.12668235       0.48195299 </v>
    <v>       0.92285710       0.39077340       0.59119613 </v>
    <v>       0.11564678       0.60137478       0.58432105 </v>
    <v>       0.15907645       0.66682628       0.45552681 </v>
    <v>       0.85195520       0.33496960       0.46681143 </v>
    <v>       0.99407887       0.50568981       0.37152384 </v>
    <v>       0.32454645       0.97935630       0.98950147 </v>
    <v>       0.53962429       0.85762782       0.89484259 </v>
    <v>       0.71903566       0.89743977       0.94562974 </v>
    <v>       0.37049295       0.09661356       0.09633621 </v>
    <v>       0.62798762       0.05375952       0.07883754 </v>
    <v>       0.86971265       0.56971602       0.93194516 </v>
    <v>       0.10390174       0.41039462       0.92567598 </v>
    <v>       0.19013713       0.37855323       0.04920229 </v>
    <v>       0.81339021       0.62702908       0.06035003 </v>
    <v>       0.01289183       0.51289985       0.14533633 </v>
    <v>       0.00000000       0.00000000       0.00835000 </v>
    <v>       0.50000000       0.50000000       0.00835000 </v>
    <v>       0.69870000       0.19870000       0.75040000 </v>
    <v>       0.30130000       0.80130000       0.75040000 </v>
    <v>       0.80130000       0.69870000       0.75040000 </v>
    <v>       0.19870000       0.30130000       0.75040000 </v>
    <v>       0.00000000       0.00000000       0.50970000 </v>
    <v>       0.50000000       0.50000000       0.50970000 </v>
    <v>       0.73403000       0.23403000       0.24900000 </v>
    <v>       0.26597000       0.76597000       0.24900000 </v>
    <v>       0.76597000       0.73403000       0.24900000 </v>
    <v>       0.23403000       0.26597000       0.24900000 </v>
    <v>       0.58786134       0.90459158       0.51734364 </v>
    <v>       0.40545123       0.09306388       0.51320839 </v>
    <v>       0.09830405       0.59653441       0.50359131 </v>
    <v>       0.92004646       0.40411056       0.51005069 </v>
    <v>       0.60519764       0.90721227       0.95180126 </v>
    <v>       0.40550305       0.02920770       0.03509406 </v>
    <v>       0.10420173       0.42553559       0.00706143 </v>
    <v>       0.88767425       0.57046530       0.01294863 </v>
    <v>       0.00000000       0.00000000       0.25380000 </v>
    <v>       0.50000000       0.50000000       0.25380000 </v>
    <v>       0.00000000       0.00000000       0.75370000 </v>
    <v>       0.50000000       0.50000000       0.75370000 </v>
   </varray>
  </structure>
  <varray name="forces" >
   <v>       0.02131616       0.03343818      -0.00451662 </v>
   <v>      -0.02053889      -0.03236402       0.15848822 </v>
   <v>      -0.21073843      -0.10136415      -0.16200059 </v>
   <v>      -0.04345684       0.02470354      -0.02656499 </v>
   <v>      -0.01077992      -0.01081031      -0.00494284 </v>
   <v>       0.00843660       0.00470719      -0.01835619 </v>
   <v>       0.01887652      -0.00109310      -0.00438737 </v>
   <v>      -0.00086221      -0.02281104       0.01619420 </v>
   <v>       0.00563373      -0.00188473       0.01145915 </v>
   <v>      -0.00471867       0.01223019       0.00356312 </v>
   <v>      -0.01684272      -0.01564529      -0.02552688 </v>
   <v>      -0.01936694      -0.02731862       0.02270243 </v>
   <v>       0.01068384       0.03001366       0.02057959 </v>
   <v>      -0.00993146       0.00532949      -0.08683971 </v>
   <v>      -0.01949295      -0.00815602      -0.01979309 </v>
   <v>      -0.03732938      -0.02196420      -0.03218498 </v>
   <v>      -0.00768561      -0.01309870      -0.00789937 </v>
   <v>      -0.02401764       0.02490971       0.01721575 </v>
   <v>       0.07316779       0.05893878       0.05962575 </v>
   <v>       0.01817279       0.00316780       0.06073011 </v>
   <v>       0.00369922       0.00819981       0.03853479 </v>
   <v>      -0.00834036       0.00102742       0.00222953 </v>
   <v>      -0.00302340       0.00594961      -0.00175759 </v>
   <v>       0.00281174       0.00168021       0.04862663 </v>
   <v>      -0.03770979      -0.00584760      -0.03217052 </v>
   <v>      -0.04670028      -0.05826235       0.00531363 </v>
   <v>       0.13191458       0.12894854      -0.02822319 </v>
   <v>      -0.01610295      -0.01279647      -0.04826403 </v>
   <v>       0.04584430      -0.03499278      -0.25253144 </v>
   <v>       0.01844452      -0.04688305      -0.25101059 </v>
   <v>      -0.05703964      -0.03225853      -0.08813743 </v>
   <v>       0.02394774      -0.05033632      -0.09728387 </v>
   <v>       0.09191715       0.09615343       0.20914011 </v>
   <v>      -0.05660994      -0.03692807       0.19461947 </v>
   <v>      -0.09100267       0.11099499       0.27303656 </v>
   <v>       0.04777579      -0.03293933       0.24034938 </v>
   <v>      -0.00818855      -0.05562011       0.01099514 </v>
   <v>      -0.03281045       0.03827036       0.00300502 </v>
   <v>       0.04203081       0.04102773      -0.01515876 </v>
   <v>      -0.02375335       0.00146077      -0.06540003 </v>
   <v>       0.03582375       0.09784676       0.12826857 </v>
   <v>       0.17981738      -0.01189070      -0.00772747 </v>
   <v>       0.05951015      -0.05280105      -0.05069714 </v>
   <v>      -0.00889278       0.00234322      -0.10229345 </v>
   <v>       0.01595143      -0.10828044      -0.10479033 </v>
   <v>       0.00805700       0.14685051      -0.20344210 </v>
   <v>      -0.11129616       0.16555804       0.07031539 </v>
   <v>       0.06339898      -0.24740298       0.14690801 </v>
  </varray>
  <energy>
   <i name="e_fr_energy">   -593.37007138 </i>
   <i name="e_wo_entrp">   -593.37007138 </i>
   <i name="e_0_energy">   -593.37007138 </i>
  </energy>
  <time name="totalsc">  111.10  111.16</time>
 </calculation>
 <calculation>
  <scstep>
   <time name="total">   12.89   12.89</time>
   <energy>
    <i name="alphaZ">    119.23563490 </i>
    <i name="ewald">  -4662.45798410 </i>
    <i name="hartreedc">  -2325.70561189 </i>
    <i name="XCdc">   -141.96963582 </i>
    <i name="pawpsdc">  13113.18992359 </i>
    <i name="pawaedc"> -12813.22905099 </i>
    <i name="eentropy">     -0.00000000 </i>
    <i name="bandstr">  -1003.89684031 </i>
    <i name="atom">   7121.46799656 </i>
    <i name="e_fr_energy">   -593.36556807 </i>
    <i name="e_wo_entrp">   -593.36556807 </i>
    <i name="e_0_energy">   -593.36556807 </i>
   </energy>
  </scstep>
  <scstep>
   <time name="total">   12.88   12.88</time>
   <energy>
    <i name="e_fr_energy">   -593.36969036 </i>
    <i name="e_wo_entrp">   -593.36969036 </i>
    <i name="e_0_energy">   -593.36969036 </i>
   </energy>
  </scstep>
  <scstep>
   <time name="total">   12.88   12.89</time>
   <energy>
    <i name="e_fr_energy">   -593.37075580 </i>
    <i name="e_wo_entrp">   -593.37075580 </i>
    <i name="e_0_energy">   -593.37075580 </i>
   </energy>
  </scstep>
  <scstep>
   <time name="total">   12.89   12.89</time>
   <energy>
    <i name="e_fr_energy">   -593.37091261 </i>
    <i name="e_wo_entrp">   -593.37091261 </i>
    <i name="e_0_energy">   -593.37091261 </i>
   </energy>
  </scstep>
  <scstep>
   <time name="total">   12.87   12.89</time>
   <energy>
    <i name="e_fr_energy">   -593.37094471 </i>
    <i name="e_wo_entrp">   -593.37094471 </i>
    <i name="e_0_energy">   -593.37094471 </i>
   </energy>
  </scstep>
  <scstep>
   <time name="total">   12.87   12.88</time>
   <energy>
    <i name="e_fr_energy">   -593.37095347 </i>
    <i name="e_wo_entrp">   -593.37095347 </i>
    <i name="e_0_energy">   -593.37095347 </i>
   </energy>
  </scstep>
  <scstep>
   <time name="total">   12.89   12.90</time>
   <energy>
    <i name="e_fr_energy">   -593.37095660 </i>
    <i name="e_wo_entrp">   -593.37095660 </i>
    <i name="e_0_energy">   -593.37095660 </i>
   </energy>
  </scstep>
  <scstep>
   <time name="total">   14.91   14.92</time>
   <energy>
    <i name="alphaZ">    119.23563490 </i>
    <i name="ewald">  -4662.45798410 </i>
    <i name="hartreedc">  -2325.58268849 </i>
    <i name="XCdc">   -141.98010806 </i>
    <i name="pawpsdc">  13112.36797844 </i>
    <i name="pawaedc"> -12812.40713876 </i>
    <i name="eentropy">     -0.00000000 </i>
    <i name="bandstr">  -1004.01464805 </i>
    <i name="atom">   7121.46799656 </i>
    <i name="e_fr_energy">   -593.37095757 </i>
    <i name="e_wo_entrp">   -593.37095757 </i>
    <i name="e_0_energy">   -593.37095757 </i>
   </energy>
  </scstep>
  <structure>
   <crystal>
    <varray name="basis" >
     <v>       8.83790000       0.00000000       0.00000000 </v>
     <v>       0.00000000       8.83790000       0.00000000 </v>
     <v>       0.00000000       0.00000000      12.40660000 </v>
    </varray>
    <i name="volume">    969.06062343 </i>
    <varray name="rec_basis" >
     <v>       0.11314905       0.00000000       0.00000000 </v>
     <v>       0.00000000       0.11314905       0.00000000 </v>
     <v>       0.00000000       0.00000000       0.08060226 </v>
    </varray>
   </crystal>
   <varray name="positions" >
    <v>       0.54447672       0.04465985       0.50414396 </v>
    <v>       0.00405011       0.50200669       0.45849492 </v>
    <v>       0.54955975       0.99893268       0.02410138 </v>
    <v>       0.00207112       0.50323535       0.05859703 </v>
    <v>       0.31775558       0.02543895       0.53457252 </v>
    <v>       0.51633873       0.82044409       0.53965180 </v>
    <v>       0.69902912       0.87906140       0.51005093 </v>
    <v>       0.38462882       0.20499237       0.50325650 </v>
    <v>       0.63004564       0.12676470       0.48190372 </v>
    <v>       0.92290762       0.39076354       0.59116009 </v>
    <v>       0.11565830       0.60139688       0.58426250 </v>
    <v>       0.15906756       0.66683232       0.45555498 </v>
    <v>       0.85199528       0.33493509       0.46683328 </v>
    <v>       0.99406726       0.50568974       0.37144760 </v>
    <v>       0.32455930       0.97932195       0.98950561 </v>
    <v>       0.53960043       0.85762395       0.89482020 </v>
    <v>       0.71905469       0.89745979       0.94562144 </v>
    <v>       0.37049150       0.09662236       0.09637930 </v>
    <v>       0.62806352       0.05377199       0.07890805 </v>
    <v>       0.86972976       0.56968769       0.93202206 </v>
    <v>       0.10385501       0.41039884       0.92567409 </v>
    <v>       0.19013882       0.37856906       0.04919958 </v>
    <v>       0.81337322       0.62703385       0.06041249 </v>
    <v>       0.01292676       0.51290955       0.14542099 </v>
    <v>       0.00000000       0.00000000       0.00835000 </v>
    <v>       0.50000000       0.50000000       0.00835000 </v>
    <v>       0.69870000       0.19870000       0.75040000 </v>
    <v>       0.30130000       0.80130000       0.75040000 </v>
    <v>       0.80130000       0.69870000       0.75040000 </v>
    <v>       0.19870000       0.30130000       0.75040000 </v>
    <v>       0.00000000       0.00000000       0.50970000 </v>
    <v>       0.50000000       0.50000000       0.50970000 </v>
    <v>       0.73403000       0.23403000       0.24900000 </v>
    <v>       0.26597000       0.76597000       0.24900000 </v>
    <v>       0.76597000       0.73403000       0.24900000 </v>
    <v>       0.23403000       0.26597000       0.24900000 </v>
    <v>       0.58783335       0.90451979       0.51735206 </v>
    <v>       0.40538839       0.09311255       0.51319153 </v>
    <v>       0.09833761       0.59661828       0.50359080 </v>
    <v>       0.92004577       0.40405435       0.51001926 </v>
    <v>       0.60523325       0.90727465       0.95184736 </v>
    <v>       0.40560587       0.02917964       0.03509843 </v>
    <v>       0.10426540       0.42552339       0.00700172 </v>
    <v>       0.88759935       0.57047767       0.01290575 </v>
    <v>       0.00000000       0.00000000       0.25380000 </v>
    <v>       0.50000000       0.50000000       0.25380000 </v>
    <v>       0.00000000       0.00000000       0.75370000 </v>
    <v>       0.50000000       0.50000000       0.75370000 </v>
   </varray>
  </structure>
  <varray name="forces" >
   <v>       0.00373720       0.00105331       0.00212355 </v>
   <v>      -0.01651363       0.00407520       0.01413247 </v>
   <v>      -0.02713008      -0.00243623      -0.02747025 </v>
   <v>      -0.00185541       0.00441082       0.00334315 </v>
   <v>       0.00155055       0.00794600      -0.01112264 </v>
   <v>       0.01300317       0.00774133      -0.01990104 </v>
   <v>      -0.00392512      -0.00256211      -0.00043361 </v>
   <v>      -0.01229482      -0.01320394       0.01736031 </v>
   <v>      -0.00446083      -0.01568364       0.01595211 </v>
   <v>      -0.01058805       0.00521570       0.00996426 </v>
   <v>      -0.00685329      -0.00840706       0.00771865 </v>
   <v>      -0.00384598      -0.00880843      -0.00081837 </v>
   <v>      -0.00423975       0.01479503       0.00019415 </v>
   <v>      -0.00064461       0.00147674      -0.00433755 </v>
   <v>      -0.00761990       0.00410839      -0.00648877 </v>
   <v>      -0.00590664      -0.00530976      -0.00304509 </v>
   <v>      -0.00563242      -0.00733780      -0.00008513 </v>
   <v>      -0.00639845       0.00523063      -0.00640287 </v>
   <v>       0.00610036       0.01389867      -0.00198847 </v>
   <v>       0.00199838       0.00607574      -0.00238827 </v>
   <v>       0.00970629       0.00149606       0.01142426 </v>
   <v>      -0.00267668      -0.00260562       0.00127658 </v>
   <v>       0.00241190       0.00065805      -0.01665233 </v>
   <v>      -0.00563679      -0.00131563      -0.00823642 </v>
   <v>      -0.03700793      -0.00575369      -0.03173428 </v>
   <v>      -0.04663237      -0.05842711       0.00570358 </v>
   <v>       0.13186283       0.12865299      -0.02831615 </v>
   <v>      -0.01577065      -0.01243825      -0.04807252 </v>
   <v>       0.04579817      -0.03437917      -0.25321616 </v>
   <v>       0.01868325      -0.04762647      -0.25208873 </v>
   <v>      -0.05771107      -0.03243316      -0.08857630 </v>
   <v>       0.02463959      -0.05081666      -0.09770628 </v>
   <v>       0.09242881       0.09642260       0.20899823 </v>
   <v>      -0.05699429      -0.03696889       0.19422086 </v>
   <v>      -0.09015874       0.11015314       0.27240114 </v>
   <v>       0.04767289      -0.03323999       0.23914795 </v>
   <v>       0.00284921      -0.00241267       0.00118501 </v>
   <v>       0.00236972       0.00168673       0.00540192 </v>
   <v>       0.00576967      -0.00369212      -0.00409879 </v>
   <v>      -0.00702314       0.01051354      -0.01005281 </v>
   <v>       0.00346645       0.01585932       0.02361088 </v>
   <v>       0.03120617       0.00200887      -0.00334199 </v>
   <v>       0.00504976      -0.01281466       0.00105105 </v>
   <v>       0.01092009      -0.00136518      -0.01765428 </v>
   <v>       0.01581568      -0.10851951      -0.10517201 </v>
   <v>       0.00831293       0.14698510      -0.20382054 </v>
   <v>      -0.11140379       0.16557571       0.07063150 </v>
   <v>       0.06357137      -0.24748193       0.14738002 </v>
  </varray>
  <energy>
   <i name="e_fr_energy">   -593.37095757 </i>
   <i name="e_wo_entrp">   -593.37095757 </i>
   <i name="e_0_energy">   -593.37095757 </i>
  </energy>
  <time name="totalsc">  111.09  111.15</time>
 </calculation>
 <calculation>
  <scstep>
   <time name="total">   12.90   12.90</time>
   <energy>
    <i name="alphaZ">    119.23563490 </i>
    <i name="ewald">  -4661.71556815 </i>
    <i name="hartreedc">  -2325.77187282 </i>
    <i name="XCdc">   -141.97273239 </i>
    <i name="pawpsdc">  13113.25185917 </i>
    <i name="pawaedc"> -12813.29263675 </i>
    <i name="eentropy">     -0.00000000 </i>
    <i name="bandstr">  -1004.57063034 </i>
    <i name="atom">   7121.46799656 </i>
    <i name="e_fr_energy">   -593.36794982 </i>
    <i name="e_wo_entrp">   -593.36794982 </i>
    <i name="e_0_energy">   -593.36794982 </i>
   </energy>
  </scstep>
  <scstep>
   <time name="total">   12.89   12.90</time>
   <energy>
    <i name="e_fr_energy">   -593.37032723 </i>
    <i name="e_wo_entrp">   -593.37032723 </i>
    <i name="e_0_energy">   -593.37032723 </i>
   </energy>
  </scstep>
  <scstep>
   <time name="total">   12.89   12.89</time>
   <energy>
    <i name="e_fr_energy">   -593.37094131 </i>
    <i name="e_wo_entrp">   -593.37094131 </i>
    <i name="e_0_energy">   -593.37094131 </i>
   </energy>
  </scstep>
  <scstep>
   <time name="total">   12.88   12.88</time>
   <energy>
    <i name="e_fr_energy">   -593.37102881 </i>
    <i name="e_wo_entrp">   -593.37102881 </i>
    <i name="e_0_energy">   -593.37102881 </i>
   </energy>
  </scstep>
  <scstep>
   <time name="total">   12.89   12.90</time>
   <energy>
    <i name="e_fr_energy">   -593.37104696 </i>
    <i name="e_wo_entrp">   -593.37104696 </i>
    <i name="e_0_energy">   -593.37104696 </i>
   </energy>
  </scstep>
  <scstep>
   <time name="total">   12.90   12.91</time>
   <energy>
    <i name="e_fr_energy">   -593.37105201 </i>
    <i name="e_wo_entrp">   -593.37105201 </i>
    <i name="e_0_energy">   -593.37105201 </i>
   </energy>
  </scstep>
  <scstep>
   <time name="total">   12.89   12.89</time>
   <energy>
    <i name="e_fr_energy">   -593.37105372 </i>
    <i name="e_wo_entrp">   -593.37105372 </i>
    <i name="e_0_energy">   -593.37105372 </i>
   </energy>
  </scstep>
  <scstep>
   <time name="total">   14.89   14.90</time>
   <energy>
    <i name="alphaZ">    119.23563490 </i>
    <i name="ewald">  -4661.71556815 </i>
    <i name="hartreedc">  -2326.21322049 </i>
    <i name="XCdc">   -141.95467526 </i>
    <i name="pawpsdc">  13117.13307062 </i>
    <i name="pawaedc"> -12817.17427830 </i>
    <i name="eentropy">     -0.00000000 </i>
    <i name="bandstr">  -1004.15001406 </i>
    <i name="atom">   7121.46799656 </i>
    <i name="e_fr_energy">   -593.37105418 </i>
    <i name="e_wo_entrp">   -593.37105418 </i>
    <i name="e_0_energy">   -593.37105418 </i>
   </energy>
  </scstep>
  <structure>
   <crystal>
    <varray name="basis" >
     <v>       8.83790000       0.00000000       0.00000000 </v>
     <v>       0.00000000       8.83790000       0.00000000 </v>
     <v>       0.00000000       0.00000000      12.40660000 </v>
    </varray>
    <i name="volume">    969.06062343 </i>
    <varray name="rec_basis" >
     <v>       0.11314905       0.00000000       0.00000000 </v>
     <v>       0.00000000       0.11314905       0.00000000 </v>
     <v>       0.00000000       0.00000000       0.08060226 </v>
    </varray>
   </crystal>
   <varray name="positions" >
    <v>       0.54448728       0.04464027       0.50415786 </v>
    <v>       0.00394254       0.50206343       0.45847992 </v>
    <v>       0.54952506       0.99899527       0.02404668 </v>
    <v>       0.00209307       0.50324843       0.05863069 </v>
    <v>       0.31777553       0.02550754       0.53451550 </v>
    <v>       0.51642990       0.82049865       0.53955514 </v>
    <v>       0.69898439       0.87904285       0.51005102 </v>
    <v>       0.38453632       0.20491133       0.50334069 </v>
    <v>       0.63000726       0.12664764       0.48198301 </v>
    <v>       0.92283129       0.39079315       0.59121241 </v>
    <v>       0.11562016       0.60134585       0.58431932 </v>
    <v>       0.15905432       0.66678796       0.45553728 </v>
    <v>       0.85195416       0.33502256       0.46682231 </v>
    <v>       0.99407042       0.50569667       0.37147371 </v>
    <v>       0.32451687       0.97935941       0.98948181 </v>
    <v>       0.53958553       0.85760120       0.89482197 </v>
    <v>       0.71901825       0.89741486       0.94562557 </v>
    <v>       0.37046238       0.09664211       0.09633508 </v>
    <v>       0.62805166       0.05383029       0.07886393 </v>
    <v>       0.86973000       0.56973114       0.93197322 </v>
    <v>       0.10392520       0.41040358       0.92571311 </v>
    <v>       0.19012542       0.37854847       0.04920527 </v>
    <v>       0.81339352       0.62703439       0.06032385 </v>
    <v>       0.01288186       0.51289825       0.14534856 </v>
    <v>       0.00000000       0.00000000       0.00835000 </v>
    <v>       0.50000000       0.50000000       0.00835000 </v>
    <v>       0.69870000       0.19870000       0.75040000 </v>
    <v>       0.30130000       0.80130000       0.75040000 </v>
    <v>       0.80130000       0.69870000       0.75040000 </v>
    <v>       0.19870000       0.30130000       0.75040000 </v>
    <v>       0.00000000       0.00000000       0.50970000 </v>
    <v>       0.50000000       0.50000000       0.50970000 </v>
    <v>       0.73403000       0.23403000       0.24900000 </v>
    <v>       0.26597000       0.76597000       0.24900000 </v>
    <v>       0.76597000       0.73403000       0.24900000 </v>
    <v>       0.23403000       0.26597000       0.24900000 </v>
    <v>       0.58786155       0.90454670       0.51735153 </v>
    <v>       0.40543288       0.09309455       0.51321848 </v>
    <v>       0.09834671       0.59655643       0.50357743 </v>
    <v>       0.92001333       0.40413336       0.51000252 </v>
    <v>       0.60523050       0.90731556       0.95190142 </v>
    <v>       0.40569697       0.02920395       0.03508498 </v>
    <v>       0.10425513       0.42547001       0.00703697 </v>
    <v>       0.88769020       0.57046471       0.01286980 </v>
    <v>       0.00000000       0.00000000       0.25380000 </v>
    <v>       0.50000000       0.50000000       0.25380000 </v>
    <v>       0.00000000       0.00000000       0.75370000 </v>
    <v>       0.50000000       0.50000000       0.75370000 </v>
   </varray>
  </structure>
  <varray name="forces" >
   <v>      -0.00800847      -0.00400016       0.00870624 </v>
   <v>       0.01255094       0.01239804       0.02673455 </v>
   <v>       0.02770948       0.01269500       0.01134712 </v>
   <v>       0.00281314      -0.01090330      -0.05294332 </v>
   <v>      -0.01273531      -0.01312883      -0.00376889 </v>
   <v>      -0.01150009      -0.01848726      -0.00931167 </v>
   <v>       0.01935432      -0.00337667      -0.00404234 </v>
   <v>      -0.00505733       0.00537831       0.01220171 </v>
   <v>       0.01994181       0.01231576       0.00614914 </v>
   <v>      -0.00927548       0.01205888      -0.02769583 </v>
   <v>      -0.01050337      -0.00888939      -0.02736702 </v>
   <v>      -0.00332735      -0.00867230       0.00229499 </v>
   <v>      -0.00695848       0.01308556      -0.00026358 </v>
   <v>      -0.00674526       0.00352557      -0.02500842 </v>
   <v>       0.01986831       0.01654670       0.01060468 </v>
   <v>       0.00992779       0.00795531       0.01960414 </v>
   <v>       0.00207643      -0.00305592       0.00428390 </v>
   <v>       0.00135614       0.00724949      -0.00458112 </v>
   <v>       0.00271757       0.01365408      -0.00536054 </v>
   <v>       0.01208035       0.00082567       0.00712874 </v>
   <v>       0.00622134       0.00209417       0.00733100 </v>
   <v>       0.00694841      -0.00782740       0.01001016 </v>
   <v>       0.00657838      -0.00150449      -0.01516099 </v>
   <v>      -0.00139339       0.00334879       0.03825796 </v>
   <v>      -0.03632102      -0.00597569      -0.03190775 </v>
   <v>      -0.04623938      -0.05818976       0.00543776 </v>
   <v>       0.13188755       0.12892603      -0.02833606 </v>
   <v>      -0.01582573      -0.01255279      -0.04776651 </v>
   <v>       0.04557383      -0.03427756      -0.25266935 </v>
   <v>       0.01863951      -0.04735514      -0.25211066 </v>
   <v>      -0.05728227      -0.03179646      -0.08844788 </v>
   <v>       0.02459135      -0.05044071      -0.09741755 </v>
   <v>       0.09216589       0.09609161       0.20913217 </v>
   <v>      -0.05668713      -0.03674650       0.19393501 </v>
   <v>      -0.09033076       0.11028119       0.27172213 </v>
   <v>       0.04794834      -0.03360889       0.23957470 </v>
   <v>       0.00413117       0.00101094      -0.00368870 </v>
   <v>      -0.00414307       0.00453517       0.00305882 </v>
   <v>       0.00953872       0.00490952       0.02777203 </v>
   <v>      -0.02840981      -0.01434442       0.03632967 </v>
   <v>      -0.01143136      -0.02837343      -0.03856346 </v>
   <v>      -0.06480285      -0.00116747      -0.02165539 </v>
   <v>       0.00083755      -0.00609776       0.00183051 </v>
   <v>      -0.01442391       0.01510514      -0.02433685 </v>
   <v>       0.01538402      -0.10839343      -0.10512975 </v>
   <v>       0.00844426       0.14683070      -0.20343308 </v>
   <v>      -0.11092190       0.16554764       0.07063871 </v>
   <v>       0.06303714      -0.24720358       0.14688088 </v>
  </varray>
  <energy>
   <i name="e_fr_energy">   -593.37105418 </i>
   <i name="e_wo_entrp">   -593.37105418 </i>
   <i name="e_0_energy">   -593.37105418 </i>
  </energy>
  <time name="totalsc">  111.11  111.16</time>
 </calculation>
 <calculation>
  <scstep>
   <time name="total">   12.90   12.90</time>
   <energy>
    <i name="alphaZ">    119.23563490 </i>
    <i name="ewald">  -4661.95991893 </i>
    <i name="hartreedc">  -2326.15086618 </i>
    <i name="XCdc">   -141.95712798 </i>
    <i name="pawpsdc">  13117.06590818 </i>
    <i name="pawaedc"> -12817.10656643 </i>
    <i name="eentropy">     -0.00000000 </i>
    <i name="bandstr">  -1003.96580858 </i>
    <i name="atom">   7121.46799656 </i>
    <i name="e_fr_energy">   -593.37074845 </i>
    <i name="e_wo_entrp">   -593.37074845 </i>
    <i name="e_0_energy">   -593.37074845 </i>
   </energy>
  </scstep>
  <scstep>
   <time name="total">   12.91   12.92</time>
   <energy>
    <i name="e_fr_energy">   -593.37100403 </i>
    <i name="e_wo_entrp">   -593.37100403 </i>
    <i name="e_0_energy">   -593.37100403 </i>
   </energy>
  </scstep>
  <scstep>
   <time name="total">   12.88   12.89</time>
   <energy>
    <i name="e_fr_energy">   -593.37107088 </i>
    <i name="e_wo_entrp">   -593.37107088 </i>
    <i name="e_0_energy">   -593.37107088 </i>
   </energy>
  </scstep>
  <scstep>
   <time name="total">   12.90   12.90</time>
   <energy>
    <i name="e_fr_energy">   -593.37108044 </i>
    <i name="e_wo_entrp">   -593.37108044 </i>
    <i name="e_0_energy">   -593.37108044 </i>
   </energy>
  </scstep>
  <scstep>
   <time name="total">   12.89   12.90</time>
   <energy>
    <i name="e_fr_energy">   -593.37108251 </i>
    <i name="e_wo_entrp">   -593.37108251 </i>
    <i name="e_0_energy">   -593.37108251 </i>
   </energy>
  </scstep>
  <scstep>
   <time name="total">   12.88   12.89</time>
   <energy>
    <i name="e_fr_energy">   -593.37108298 </i>
    <i name="e_wo_entrp">   -593.37108298 </i>
    <i name="e_0_energy">   -593.37108298 </i>
   </energy>
  </scstep>
  <scstep>
   <time name="total">   12.91   12.91</time>
   <energy>
    <i name="e_fr_energy">   -593.37108315 </i>
    <i name="e_wo_entrp">   -593.37108315 </i>
    <i name="e_0_energy">   -593.37108315 </i>
   </energy>
  </scstep>
  <scstep>
   <time name="total">   14.90   14.91</time>
   <energy>
    <i name="alphaZ">    119.23563490 </i>
    <i name="ewald">  -4661.95991893 </i>
    <i name="hartreedc">  -2326.00693410 </i>
    <i name="XCdc">   -141.96297927 </i>
    <i name="pawpsdc">  13115.52678894 </i>
    <i name="pawaedc"> -12815.56735253 </i>
    <i name="eentropy">     -0.00000000 </i>
    <i name="bandstr">  -1004.10431878 </i>
    <i name="atom">   7121.46799656 </i>
    <i name="e_fr_energy">   -593.37108321 </i>
    <i name="e_wo_entrp">   -593.37108321 </i>
    <i name="e_0_energy">   -593.37108321 </i>
   </energy>
  </scstep>
  <structure>
   <crystal>
    <varray name="basis" >
     <v>       8.83790000       0.00000000       0.00000000 </v>
     <v>       0.00000000       8.83790000       0.00000000 </v>
     <v>       0.00000000       0.00000000      12.40660000 </v>
    </varray>
    <i name="volume">    969.06062343 </i>
    <varray name="rec_basis" >
     <v>       0.11314905       0.00000000       0.00000000 </v>
     <v>       0.00000000       0.11314905       0.00000000 </v>
     <v>       0.00000000       0.00000000       0.08060226 </v>
    </varray>
   </crystal>
   <varray name="positions" >
    <v>       0.54448380       0.04464671       0.50415329 </v>
    <v>       0.00397794       0.50204476       0.45848485 </v>
    <v>       0.54953647       0.99897467       0.02406468 </v>
    <v>       0.00208584       0.50324413       0.05861962 </v>
    <v>       0.31776896       0.02548497       0.53453426 </v>
    <v>       0.51639990       0.82048070       0.53958695 </v>
    <v>       0.69899911       0.87904896       0.51005099 </v>
    <v>       0.38456676       0.20493800       0.50331298 </v>
    <v>       0.63001989       0.12668616       0.48195692 </v>
    <v>       0.92285641       0.39078340       0.59119519 </v>
    <v>       0.11563271       0.60136264       0.58430062 </v>
    <v>       0.15905868       0.66680255       0.45554310 </v>
    <v>       0.85196769       0.33499378       0.46682592 </v>
    <v>       0.99406938       0.50569439       0.37146512 </v>
    <v>       0.32453083       0.97934709       0.98948965 </v>
    <v>       0.53959043       0.85760869       0.89482139 </v>
    <v>       0.71903024       0.89742965       0.94562421 </v>
    <v>       0.37047196       0.09663561       0.09634963 </v>
    <v>       0.62805556       0.05381110       0.07887845 </v>
    <v>       0.86972992       0.56971684       0.93198929 </v>
    <v>       0.10390210       0.41040202       0.92570027 </v>
    <v>       0.19012983       0.37855524       0.04920340 </v>
    <v>       0.81338684       0.62703421       0.06035302 </v>
    <v>       0.01289663       0.51290196       0.14537239 </v>
    <v>       0.00000000       0.00000000       0.00835000 </v>
    <v>       0.50000000       0.50000000       0.00835000 </v>
    <v>       0.69870000       0.19870000       0.75040000 </v>
    <v>       0.30130000       0.80130000       0.75040000 </v>
    <v>       0.80130000       0.69870000       0.75040000 </v>
    <v>       0.19870000       0.30130000       0.75040000 </v>
    <v>       0.00000000       0.00000000       0.50970000 </v>
    <v>       0.50000000       0.50000000       0.50970000 </v>
    <v>       0.73403000       0.23403000       0.24900000 </v>
    <v>       0.26597000       0.76597000       0.24900000 </v>
    <v>       0.76597000       0.73403000       0.24900000 </v>
    <v>       0.23403000       0.26597000       0.24900000 </v>
    <v>       0.58785227       0.90453784       0.51735170 </v>
    <v>       0.40541824       0.09310047       0.51320961 </v>
    <v>       0.09834372       0.59657678       0.50358183 </v>
    <v>       0.92002400       0.40410736       0.51000803 </v>
    <v>       0.60523141       0.90730210       0.95188363 </v>
    <v>       0.40566699       0.02919595       0.03508941 </v>
    <v>       0.10425851       0.42548758       0.00702537 </v>
    <v>       0.88766030       0.57046898       0.01288163 </v>
    <v>       0.00000000       0.00000000       0.25380000 </v>
    <v>       0.50000000       0.50000000       0.25380000 </v>
    <v>       0.00000000       0.00000000       0.75370000 </v>
    <v>       0.50000000       0.50000000       0.75370000 </v>
   </varray>
  </structure>
  <varray name="forces" >
   <v>      -0.00410586      -0.00225135       0.00656731 </v>
   <v>       0.00302723       0.00978258       0.02262473 </v>
   <v>       0.00985137       0.00779593      -0.00134009 </v>
   <v>       0.00128894      -0.00589766      -0.03447328 </v>
   <v>      -0.00805252      -0.00622089      -0.00620040 </v>
   <v>      -0.00344022      -0.00987359      -0.01279231 </v>
   <v>       0.01170089      -0.00311113      -0.00284284 </v>
   <v>      -0.00746232      -0.00072402       0.01390186 </v>
   <v>       0.01191847       0.00306081       0.00941648 </v>
   <v>      -0.00970028       0.00979089      -0.01532057 </v>
   <v>      -0.00933781      -0.00874212      -0.01588336 </v>
   <v>      -0.00352246      -0.00875178       0.00128606 </v>
   <v>      -0.00605928       0.01363154      -0.00012219 </v>
   <v>      -0.00474203       0.00287343      -0.01823506 </v>
   <v>       0.01081642       0.01247895       0.00500113 </v>
   <v>       0.00475524       0.00360316       0.01215365 </v>
   <v>      -0.00050783      -0.00447265       0.00284359 </v>
   <v>      -0.00120753       0.00658136      -0.00517686 </v>
   <v>       0.00391611       0.01384341      -0.00420421 </v>
   <v>       0.00876143       0.00253415       0.00401121 </v>
   <v>       0.00739485       0.00189627       0.00864730 </v>
   <v>       0.00377408      -0.00611082       0.00711839 </v>
   <v>       0.00514022      -0.00078875      -0.01565736 </v>
   <v>      -0.00282248       0.00180850       0.02289415 </v>
   <v>      -0.03647250      -0.00581060      -0.03192352 </v>
   <v>      -0.04635091      -0.05832390       0.00548860 </v>
   <v>       0.13191888       0.12876672      -0.02836722 </v>
[...]
       <r>   -20.8075     0.0000     0.0000 </r>
       <r>   -20.7030     0.0000     0.0000 </r>
       <r>   -20.5985     0.0000     0.0000 </r>
       <r>   -20.4940     0.0000     0.0000 </r>
       <r>   -20.3895     0.5721     0.0598 </r>
       <r>   -20.2850    16.0851     1.7406 </r>
       <r>   -20.1805    20.3041     3.8623 </r>
       <r>   -20.0760    20.0447     5.9569 </r>
       <r>   -19.9715     5.6105     6.5432 </r>
       <r>   -19.8671    13.7609     7.9811 </r>
       <r>   -19.7626     0.1809     8.0000 </r>
       <r>   -19.6581     0.0000     8.0000 </r>
       <r>   -19.5536     0.0000     8.0000 </r>
       <r>   -19.4491     0.0000     8.0000 </r>
       <r>   -19.3446     0.0000     8.0000 </r>
       <r>   -19.2401     0.0000     8.0000 </r>
       <r>   -19.1356     0.0000     8.0000 </r>
       <r>   -19.0311     0.0000     8.0000 </r>
       <r>   -18.9266     0.0000     8.0000 </r>
       <r>   -18.8221     0.0000     8.0000 </r>
       <r>   -18.7176     0.0000     8.0000 </r>
       <r>   -18.6131     0.0000     8.0000 </r>
       <r>   -18.5086     0.0000     8.0000 </r>
       <r>   -18.4041     0.0000     8.0000 </r>
       <r>   -18.2996     0.0000     8.0000 </r>
       <r>   -18.1951     0.0000     8.0000 </r>
       <r>   -18.0906     0.1506     8.0157 </r>
       <r>   -17.9861    13.4033     9.4163 </r>
       <r>   -17.8816    16.3897    11.1290 </r>
       <r>   -17.7771    19.9210    13.2106 </r>
       <r>   -17.6726     7.5904    14.0038 </r>
       <r>   -17.5681    10.6898    15.1208 </r>
       <r>   -17.4637     8.3954    15.9981 </r>
       <r>   -17.3592     0.0181    16.0000 </r>
       <r>   -17.2547     0.0000    16.0000 </r>
       <r>   -17.1502     0.0000    16.0000 </r>
       <r>   -17.0457     0.0000    16.0000 </r>
       <r>   -16.9412     0.0000    16.0000 </r>
       <r>   -16.8367     0.0000    16.0000 </r>
       <r>   -16.7322     0.0000    16.0000 </r>
       <r>   -16.6277     0.0000    16.0000 </r>
       <r>   -16.5232     0.0000    16.0000 </r>
       <r>   -16.4187     0.0000    16.0000 </r>
       <r>   -16.3142     0.0000    16.0000 </r>
       <r>   -16.2097     0.0000    16.0000 </r>
       <r>   -16.1052     0.0000    16.0000 </r>
       <r>   -16.0007     0.0000    16.0000 </r>
       <r>   -15.8962     0.0000    16.0000 </r>
       <r>   -15.7917     0.0000    16.0000 </r>
       <r>   -15.6872     0.0000    16.0000 </r>
       <r>   -15.5827     0.0000    16.0000 </r>
       <r>   -15.4782     0.0000    16.0000 </r>
       <r>   -15.3737     0.0000    16.0000 </r>
       <r>   -15.2692     0.0000    16.0000 </r>
       <r>   -15.1648     0.0000    16.0000 </r>
       <r>   -15.0603     0.0000    16.0000 </r>
       <r>   -14.9558     0.0000    16.0000 </r>
       <r>   -14.8513     0.0000    16.0000 </r>
       <r>   -14.7468     0.0000    16.0000 </r>
       <r>   -14.6423     0.0000    16.0000 </r>
       <r>   -14.5378     0.0000    16.0000 </r>
       <r>   -14.4333     0.0000    16.0000 </r>
       <r>   -14.3288     0.0000    16.0000 </r>
       <r>   -14.2243     0.0000    16.0000 </r>
       <r>   -14.1198     0.0000    16.0000 </r>
       <r>   -14.0153     0.0000    16.0000 </r>
       <r>   -13.9108     0.0000    16.0000 </r>
       <r>   -13.8063     0.0000    16.0000 </r>
       <r>   -13.7018     0.0000    16.0000 </r>
       <r>   -13.5973     0.0000    16.0000 </r>
       <r>   -13.4928     0.0000    16.0000 </r>
       <r>   -13.3883     0.0000    16.0000 </r>
       <r>   -13.2838     0.0000    16.0000 </r>
       <r>   -13.1793     0.0000    16.0000 </r>
       <r>   -13.0748     0.0000    16.0000 </r>
       <r>   -12.9703     0.0000    16.0000 </r>
       <r>   -12.8658     0.0000    16.0000 </r>
       <r>   -12.7614     0.0000    16.0000 </r>
       <r>   -12.6569     0.0000    16.0000 </r>
       <r>   -12.5524     0.0000    16.0000 </r>
       <r>   -12.4479     0.0000    16.0000 </r>
       <r>   -12.3434     0.0000    16.0000 </r>
       <r>   -12.2389     0.0000    16.0000 </r>
       <r>   -12.1344     0.0000    16.0000 </r>
       <r>   -12.0299     0.0000    16.0000 </r>
       <r>   -11.9254     0.0000    16.0000 </r>
       <r>   -11.8209     0.0000    16.0000 </r>
       <r>   -11.7164     0.0000    16.0000 </r>
       <r>   -11.6119     0.2072    16.0217 </r>
       <r>   -11.5074    14.0762    17.4926 </r>
       <r>   -11.4029    26.6663    20.2791 </r>
       <r>   -11.2984    16.2923    21.9815 </r>
       <r>   -11.1939    14.0572    23.4505 </r>
       <r>   -11.0894    20.6392    25.6072 </r>
       <r>   -10.9849    19.2282    27.6164 </r>
       <r>   -10.8804    27.1335    30.4518 </r>
       <r>   -10.7759    24.0973    32.9698 </r>
       <r>   -10.6714    37.9151    36.9318 </r>
       <r>   -10.5669    43.6342    41.4914 </r>
       <r>   -10.4625    32.1938    44.8555 </r>
       <r>   -10.3580    19.3667    46.8792 </r>
       <r>   -10.2535    10.6377    47.9908 </r>
       <r>   -10.1490     0.0880    48.0000 </r>
       <r>   -10.0445     0.0000    48.0000 </r>
       <r>    -9.9400     0.0000    48.0000 </r>
       <r>    -9.8355     0.0000    48.0000 </r>
       <r>    -9.7310     0.0000    48.0000 </r>
       <r>    -9.6265     0.0000    48.0000 </r>
       <r>    -9.5220     0.0117    48.0012 </r>
       <r>    -9.4175     7.4508    48.7798 </r>
       <r>    -9.3130    16.7907    50.5344 </r>
       <r>    -9.2085    26.0843    53.2600 </r>
       <r>    -9.1040     7.1571    54.0079 </r>
       <r>    -8.9995    11.8579    55.2470 </r>
       <r>    -8.8950     7.1945    55.9988 </r>
       <r>    -8.7905     0.0786    56.0070 </r>
       <r>    -8.6860    11.6239    57.2217 </r>
       <r>    -8.5815    20.9025    59.4059 </r>
       <r>    -8.4770    13.2851    60.7941 </r>
       <r>    -8.3725    11.5655    62.0027 </r>
       <r>    -8.2680    12.3652    63.2948 </r>
       <r>    -8.1635     6.7405    63.9991 </r>
       <r>    -8.0591     0.0083    64.0000 </r>
       <r>    -7.9546     0.0000    64.0000 </r>
       <r>    -7.8501     0.0000    64.0000 </r>
       <r>    -7.7456     0.0000    64.0000 </r>
       <r>    -7.6411     0.0000    64.0000 </r>
       <r>    -7.5366     0.0000    64.0000 </r>
       <r>    -7.4321     0.0000    64.0000 </r>
       <r>    -7.3276     0.0000    64.0000 </r>
       <r>    -7.2231     0.0000    64.0000 </r>
       <r>    -7.1186     0.0000    64.0000 </r>
       <r>    -7.0141     0.0086    64.0009 </r>
       <r>    -6.9096     6.7709    64.7084 </r>
       <r>    -6.8051    16.2964    66.4113 </r>
       <r>    -6.7006    28.6759    69.4078 </r>
       <r>    -6.5961     5.6665    70.0000 </r>
       <r>    -6.4916     4.6203    70.4828 </r>
       <r>    -6.3871    14.2347    71.9702 </r>
       <r>    -6.2826     0.2854    72.0000 </r>
       <r>    -6.1781     0.3702    72.0387 </r>
       <r>    -6.0736     0.6872    72.1105 </r>
       <r>    -5.9691     0.1947    72.1309 </r>
       <r>    -5.8646     4.4594    72.5969 </r>
       <r>    -5.7602     2.0745    72.8137 </r>
       <r>    -5.6557     5.0124    73.3374 </r>
       <r>    -5.5512     4.1448    73.7705 </r>
       <r>    -5.4467     6.2501    74.4236 </r>
       <r>    -5.3422    17.7709    76.2806 </r>
       <r>    -5.2377    28.4064    79.2490 </r>
       <r>    -5.1332    21.9687    81.5446 </r>
       <r>    -5.0287    20.8073    83.7189 </r>
       <r>    -4.9242    23.3520    86.1591 </r>
       <r>    -4.8197     9.2295    87.1235 </r>
       <r>    -4.7152    16.2057    88.8169 </r>
       <r>    -4.6107    21.7656    91.0913 </r>
       <r>    -4.5062    21.5075    93.3388 </r>
       <r>    -4.4017    17.0549    95.1209 </r>
       <r>    -4.2972     7.3362    95.8875 </r>
       <r>    -4.1927     0.0130    95.8889 </r>
       <r>    -4.0882     0.0000    95.8889 </r>
       <r>    -3.9837     0.0041    95.8893 </r>
       <r>    -3.8792     0.6494    95.9572 </r>
       <r>    -3.7747     0.4092    95.9999 </r>
       <r>    -3.6702     0.0006    96.0000 </r>
       <r>    -3.5657     0.0000    96.0000 </r>
       <r>    -3.4612     0.0000    96.0000 </r>
       <r>    -3.3568     0.0000    96.0000 </r>
       <r>    -3.2523     0.0000    96.0000 </r>
       <r>    -3.1478     0.0000    96.0000 </r>
       <r>    -3.0433     0.0000    96.0000 </r>
       <r>    -2.9388     0.0000    96.0000 </r>
       <r>    -2.8343     0.0000    96.0000 </r>
       <r>    -2.7298     0.0000    96.0000 </r>
       <r>    -2.6253     0.0000    96.0000 </r>
       <r>    -2.5208     0.0001    96.0000 </r>
       <r>    -2.4163     0.4586    96.0479 </r>
       <r>    -2.3118    10.1686    97.1105 </r>
       <r>    -2.2073    15.3199    98.7114 </r>
       <r>    -2.1028     7.7883    99.5252 </r>
       <r>    -1.9983     7.6762   100.3273 </r>
       <r>    -1.8938    11.9469   101.5757 </r>
       <r>    -1.7893    15.4716   103.1924 </r>
       <r>    -1.6848    13.9602   104.6512 </r>
       <r>    -1.5803    10.4697   105.7453 </r>
       <r>    -1.4758    15.4109   107.3556 </r>
       <r>    -1.3713    26.7482   110.1507 </r>
       <r>    -1.2668    31.1711   113.4079 </r>
       <r>    -1.1623    22.5675   115.7661 </r>
       <r>    -1.0579    19.2631   117.7791 </r>
       <r>    -0.9534    19.9662   119.8654 </r>
       <r>    -0.8489    25.9666   122.5788 </r>
       <r>    -0.7444    26.4276   125.3404 </r>
       <r>    -0.6399    20.1652   127.4476 </r>
       <r>    -0.5354    27.9417   130.3674 </r>
       <r>    -0.4309    21.9143   132.6573 </r>
       <r>    -0.3264    26.9053   135.4688 </r>
       <r>    -0.2219    29.6228   138.5642 </r>
       <r>    -0.1174    35.9992   142.3260 </r>
       <r>    -0.0129    41.1700   146.6281 </r>
       <r>     0.0916    45.8827   151.4226 </r>
       <r>     0.1961    45.8940   156.2183 </r>
       <r>     0.3006    43.2542   160.7382 </r>
       <r>     0.4051    29.7720   163.8492 </r>
       <r>     0.5096    33.4583   167.3455 </r>
       <r>     0.6141    22.9171   169.7402 </r>
       <r>     0.7186    12.1618   171.0111 </r>
       <r>     0.8231    11.2836   172.1902 </r>
       <r>     0.9276     8.6391   173.0929 </r>
       <r>     1.0321     4.7289   173.5870 </r>
       <r>     1.1366     5.7082   174.1835 </r>
       <r>     1.2411     1.0662   174.2949 </r>
       <r>     1.3455     3.4086   174.6511 </r>
       <r>     1.4500     0.2764   174.6800 </r>
       <r>     1.5545     4.6775   175.1688 </r>
       <r>     1.6590     2.8139   175.4628 </r>
       <r>     1.7635     3.3014   175.8078 </r>
       <r>     1.8680     0.7731   175.8886 </r>
       <r>     1.9725     0.0029   175.8889 </r>
       <r>     2.0770     0.0000   175.8889 </r>
       <r>     2.1815     0.0000   175.8889 </r>
       <r>     2.2860     0.0779   175.8970 </r>
       <r>     2.3905     0.9149   175.9926 </r>
       <r>     2.4950     0.0705   176.0000 </r>
       <r>     2.5995     0.0000   176.0000 </r>
       <r>     2.7040     0.0000   176.0000 </r>
       <r>     2.8085     0.0000   176.0000 </r>
       <r>     2.9130     0.0000   176.0000 </r>
       <r>     3.0175     0.2164   176.0226 </r>
       <r>     3.1220     2.0342   176.2352 </r>
       <r>     3.2265     1.7067   176.4135 </r>
       <r>     3.3310     8.2206   177.2725 </r>
       <r>     3.4355     7.8961   178.0976 </r>
       <r>     3.5400     8.2073   178.9553 </r>
       <r>     3.6444    10.1634   180.0173 </r>
       <r>     3.7489     4.7927   180.5181 </r>
       <r>     3.8534     1.4185   180.6664 </r>
       <r>     3.9579     0.7885   180.7487 </r>
       <r>     4.0624     4.0734   181.1744 </r>
       <r>     4.1669     3.7083   181.5619 </r>
       <r>     4.2714     5.1024   182.0951 </r>
       <r>     4.3759    16.3679   183.8055 </r>
       <r>     4.4804     7.8486   184.6256 </r>
       <r>     4.5849     7.0832   185.3658 </r>
       <r>     4.6894     6.0581   185.9988 </r>
       <r>     4.7939    12.1354   187.2669 </r>
       <r>     4.8984    27.9377   190.1863 </r>
       <r>     5.0029    17.2768   191.9916 </r>
       <r>     5.1074     5.0846   192.5229 </r>
       <r>     5.2119    13.7129   193.9559 </r>
       <r>     5.3164     9.7293   194.9725 </r>
       <r>     5.4209    11.1779   196.1406 </r>
       <r>     5.5254    16.1489   197.8281 </r>
       <r>     5.6299    15.9166   199.4913 </r>
       <r>     5.7344     6.6613   200.1874 </r>
       <r>     5.8389     5.6534   200.7781 </r>
       <r>     5.9434     4.3869   201.2365 </r>
       <r>     6.0478    15.7626   202.8837 </r>
       <r>     6.1523     8.1955   203.7401 </r>
       <r>     6.2568     8.2864   204.6059 </r>
       <r>     6.3613    10.4696   205.7000 </r>
       <r>     6.4658     7.8177   206.5169 </r>
       <r>     6.5703     6.0629   207.1504 </r>
       <r>     6.6748    12.2469   208.4302 </r>
       <r>     6.7793    14.0246   209.8957 </r>
       <r>     6.8838    21.5451   212.1471 </r>
       <r>     6.9883    22.4968   214.4979 </r>
       <r>     7.0928    22.7846   216.8788 </r>
       <r>     7.1973    23.7793   219.3636 </r>
       <r>     7.3018    20.6892   221.5255 </r>
       <r>     7.4063    19.9580   223.6110 </r>
       <r>     7.5108    22.1425   225.9248 </r>
       <r>     7.6153    20.8493   228.1035 </r>
       <r>     7.7198    24.1716   230.6293 </r>
       <r>     7.8243    27.5847   233.5118 </r>
       <r>     7.9288    25.1416   236.1390 </r>
       <r>     8.0333    22.8193   238.5235 </r>
       <r>     8.1378    11.4041   239.7152 </r>
       <r>     8.2423     2.6832   239.9956 </r>
       <r>     8.3467     0.0423   240.0000 </r>
       <r>     8.4512     0.0000   240.0000 </r>
       <r>     8.5557     0.0000   240.0000 </r>
       <r>     8.6602     0.0000   240.0000 </r>
       <r>     8.7647     0.0000   240.0000 </r>
       <r>     8.8692     0.0000   240.0000 </r>
       <r>     8.9737     0.0000   240.0000 </r>
       <r>     9.0782     0.0000   240.0000 </r>
       <r>     9.1827     0.0000   240.0000 </r>
       <r>     9.2872     0.0000   240.0000 </r>
       <r>     9.3917     0.0000   240.0000 </r>
       <r>     9.4962     0.0000   240.0000 </r>
       <r>     9.6007     0.0000   240.0000 </r>
      </set>
     </set>
    </array>
   </total>
  </dos>
 </calculation>
 <structure name="finalpos" >
  <crystal>
   <varray name="basis" >
    <v>       8.83790000       0.00000000       0.00000000 </v>
    <v>       0.00000000       8.83790000       0.00000000 </v>
    <v>       0.00000000       0.00000000      12.40660000 </v>
   </varray>
   <i name="volume">    969.06062343 </i>
   <varray name="rec_basis" >
    <v>       0.11314905       0.00000000       0.00000000 </v>
    <v>       0.00000000       0.11314905       0.00000000 </v>
    <v>       0.00000000       0.00000000       0.08060226 </v>
   </varray>
  </crystal>
  <varray name="positions" >
   <v>       0.54495491       0.04494122       0.50546493 </v>
   <v>       0.00026691       0.50233607       0.45946318 </v>
   <v>       0.54816911       0.00771723       0.01921568 </v>
   <v>       0.00091073       0.50147811       0.05818425 </v>
   <v>       0.31646029       0.01933100       0.52603898 </v>
   <v>       0.51899606       0.81587662       0.52258047 </v>
   <v>       0.70203241       0.88172544       0.50439428 </v>
   <v>       0.38264321       0.20274571       0.51005368 </v>
   <v>       0.63064793       0.13071955       0.49303326 </v>
   <v>       0.90834378       0.39600461       0.59076520 </v>
   <v>       0.11210386       0.59673567       0.58705859 </v>
   <v>       0.16191919       0.66053243       0.45908571 </v>
   <v>       0.83988909       0.34336680       0.46494874 </v>
   <v>       0.99336330       0.50631677       0.37226027 </v>
   <v>       0.32296575       0.98197069       0.98745831 </v>
   <v>       0.53754188       0.85038377       0.89986442 </v>
   <v>       0.71739516       0.89768932       0.94651436 </v>
   <v>       0.36899421       0.11103594       0.08717218 </v>
   <v>       0.62693445       0.06998416       0.06968279 </v>
   <v>       0.87811545       0.57724244       0.92923440 </v>
   <v>       0.10828088       0.41097162       0.92659318 </v>
   <v>       0.18527410       0.37157435       0.05228301 </v>
   <v>       0.81602590       0.63080213       0.05700435 </v>
   <v>       0.00650102       0.50682046       0.14542142 </v>
   <v>       0.00000000       0.00000000       0.00835000 </v>
   <v>       0.50000000       0.50000000       0.00835000 </v>
   <v>       0.69870000       0.19870000       0.75040000 </v>
   <v>       0.30130000       0.80130000       0.75040000 </v>
   <v>       0.80130000       0.69870000       0.75040000 </v>
   <v>       0.19870000       0.30130000       0.75040000 </v>
   <v>       0.00000000       0.00000000       0.50970000 </v>
   <v>       0.50000000       0.50000000       0.50970000 </v>
   <v>       0.73403000       0.23403000       0.24900000 </v>
   <v>       0.26597000       0.76597000       0.24900000 </v>
   <v>       0.76597000       0.73403000       0.24900000 </v>
   <v>       0.23403000       0.26597000       0.24900000 </v>
   <v>       0.58999386       0.90428717       0.51018321 </v>
   <v>       0.40466358       0.09037195       0.51298825 </v>
   <v>       0.09723109       0.59267578       0.50610388 </v>
   <v>       0.91047799       0.40812618       0.50949778 </v>
   <v>       0.60362626       0.90743064       0.95296381 </v>
   <v>       0.40409221       0.03779865       0.02936372 </v>
   <v>       0.10408462       0.42310300       0.00811623 </v>
   <v>       0.89135982       0.57406528       0.01058181 </v>
   <v>       0.00000000       0.00000000       0.25380000 </v>
   <v>       0.50000000       0.50000000       0.25380000 </v>
   <v>       0.00000000       0.00000000       0.75370000 </v>
   <v>       0.50000000       0.50000000       0.75370000 </v>
  </varray>
  <varray name="selective"  type="logical" >
   <v type="logical" >  T  T  T </v>
   <v type="logical" >  T  T  T </v>
   <v type="logical" >  T  T  T </v>
   <v type="logical" >  T  T  T </v>
   <v type="logical" >  T  T  T </v>
   <v type="logical" >  T  T  T </v>
   <v type="logical" >  T  T  T </v>
   <v type="logical" >  T  T  T </v>
   <v type="logical" >  T  T  T </v>
   <v type="logical" >  T  T  T </v>
   <v type="logical" >  T  T  T </v>
   <v type="logical" >  T  T  T </v>
   <v type="logical" >  T  T  T </v>
   <v type="logical" >  T  T  T </v>
   <v type="logical" >  T  T  T </v>
   <v type="logical" >  T  T  T </v>
   <v type="logical" >  T  T  T </v>
   <v type="logical" >  T  T  T </v>
   <v type="logical" >  T  T  T </v>
   <v type="logical" >  T  T  T </v>
   <v type="logical" >  T  T  T </v>
   <v type="logical" >  T  T  T </v>
   <v type="logical" >  T  T  T </v>
   <v type="logical" >  T  T  T </v>
   <v type="logical" >  F  F  F </v>
   <v type="logical" >  F  F  F </v>
   <v type="logical" >  F  F  F </v>
   <v type="logical" >  F  F  F </v>
   <v type="logical" >  F  F  F </v>
   <v type="logical" >  F  F  F </v>
   <v type="logical" >  F  F  F </v>
   <v type="logical" >  F  F  F </v>
   <v type="logical" >  F  F  F </v>
   <v type="logical" >  F  F  F </v>
   <v type="logical" >  F  F  F </v>
   <v type="logical" >  F  F  F </v>
   <v type="logical" >  T  T  T </v>
   <v type="logical" >  T  T  T </v>
   <v type="logical" >  T  T  T </v>
   <v type="logical" >  T  T  T </v>
   <v type="logical" >  T  T  T </v>
   <v type="logical" >  T  T  T </v>
   <v type="logical" >  T  T  T </v>
   <v type="logical" >  T  T  T </v>
   <v type="logical" >  F  F  F </v>
   <v type="logical" >  F  F  F </v>
   <v type="logical" >  F  F  F </v>
   <v type="logical" >  F  F  F </v>
  </varray>
  <nose>
   <v>      -3.00000000       0.00000000       0.00010000       0.00010000 </v>
  </nose>
 </structure>
</modeling>
