ortho-FASnI3                            
           1
     8.837900    0.000000    0.000000
     0.000000    8.837900    0.000000
     0.000000    0.000000   12.406600
   C    H    I    N    Sn
     4    20    12     8     4
Direct configuration=     1
   0.54448175  0.04467768  0.50413898
   0.00407225  0.50197924  0.45854008
   0.54949274  0.99887884  0.02407465
   0.00204883  0.50324083  0.05858063
   0.31774632  0.02541605  0.53458707
   0.51631658  0.82043070  0.53967397
   0.69904833  0.87906618  0.51004982
   0.38465435  0.20500646  0.50323727
   0.63005841  0.12679657  0.48188464
   0.92292718  0.39075972  0.59114613
   0.11566276  0.60140543  0.58423983
   0.15906412  0.66683465  0.45556589
   0.85201079  0.33492173  0.46684174
   0.99406276  0.50568972  0.37141809
   0.32456428  0.97930866  0.98950722
   0.53959119  0.85762245  0.89481153
   0.71906205  0.89746753  0.94561823
   0.37049094  0.09662577  0.09639598
   0.62809291  0.05377682  0.07893534
   0.86973638  0.56967672  0.93205183
   0.10383692  0.41040047  0.92567336
   0.19013948  0.37857519  0.04919853
   0.81336665  0.62703570  0.06043667
   0.01294029  0.51291330  0.14545377
   0.00000000  0.00000000  0.00835000
   0.50000000  0.50000000  0.00835000
   0.69870000  0.19870000  0.75040000
   0.30130000  0.80130000  0.75040000
   0.80130000  0.69870000  0.75040000
   0.19870000  0.30130000  0.75040000
   0.00000000  0.00000000  0.50970000
   0.50000000  0.50000000  0.50970000
   0.73403000  0.23403000  0.24900000
   0.26597000  0.76597000  0.24900000
   0.76597000  0.73403000  0.24900000
   0.23403000  0.26597000  0.24900000
   0.58782251  0.90449199  0.51735532
   0.40536407  0.09313139  0.51318501
   0.09835061  0.59665074  0.50359060
   0.92004550  0.40403258  0.51000710
   0.60524703  0.90729880  0.95186520
   0.40564567  0.02916877  0.03510013
   0.10429005  0.42551867  0.00697861
   0.88757035  0.57048246  0.01288915
   0.00000000  0.00000000  0.25380000
   0.50000000  0.50000000  0.25380000
   0.00000000  0.00000000  0.75370000
   0.50000000  0.50000000  0.75370000
Direct configuration=     2
   0.54446374  0.04461378  0.50415682
   0.00399290  0.50207758  0.45837827
   0.54973284  0.99907177  0.02417042
   0.00212869  0.50322120  0.05863940
   0.31777948  0.02549812  0.53453491
   0.51639595  0.82047869  0.53959456
   0.69897950  0.87904904  0.51005381
   0.38456289  0.20495597  0.50330617
   0.63001265  0.12668235  0.48195299
   0.92285710  0.39077340  0.59119613
   0.11564678  0.60137478  0.58432105
   0.15907645  0.66682628  0.45552681
   0.85195520  0.33496960  0.46681143
   0.99407887  0.50568981  0.37152384
   0.32454645  0.97935630  0.98950147
   0.53962429  0.85762782  0.89484259
   0.71903566  0.89743977  0.94562974
   0.37049295  0.09661356  0.09633621
   0.62798762  0.05375952  0.07883754
   0.86971265  0.56971602  0.93194516
   0.10390174  0.41039462  0.92567598
   0.19013713  0.37855323  0.04920229
   0.81339021  0.62702908  0.06035003
   0.01289183  0.51289985  0.14533633
   0.00000000  0.00000000  0.00835000
   0.50000000  0.50000000  0.00835000
   0.69870000  0.19870000  0.75040000
   0.30130000  0.80130000  0.75040000
   0.80130000  0.69870000  0.75040000
   0.19870000  0.30130000  0.75040000
   0.00000000  0.00000000  0.50970000
   0.50000000  0.50000000  0.50970000
   0.73403000  0.23403000  0.24900000
   0.26597000  0.76597000  0.24900000
   0.76597000  0.73403000  0.24900000
   0.23403000  0.26597000  0.24900000
   0.58786134  0.90459158  0.51734364
   0.40545123  0.09306388  0.51320839
   0.09830405  0.59653441  0.50359131
   0.92004646  0.40411056  0.51005069
   0.60519764  0.90721227  0.95180126
   0.40550305  0.02920770  0.03509406
   0.10420173  0.42553559  0.00706143
   0.88767425  0.57046530  0.01294863
   0.00000000  0.00000000  0.25380000
   0.50000000  0.50000000  0.25380000
   0.00000000  0.00000000  0.75370000
   0.50000000  0.50000000  0.75370000
Direct configuration=     3
   0.54447672  0.04465985  0.50414396
   0.00405011  0.50200669  0.45849492
   0.54955975  0.99893268  0.02410138
   0.00207112  0.50323535  0.05859703
   0.31775558  0.02543895  0.53457252
   0.51633873  0.82044409  0.53965180
   0.69902912  0.87906140  0.51005093
   0.38462882  0.20499237  0.50325650
   0.63004564  0.12676470  0.48190372
   0.92290762  0.39076354  0.59116009
   0.11565830  0.60139688  0.58426250
   0.15906756  0.66683232  0.45555498
   0.85199528  0.33493509  0.46683328
   0.99406726  0.50568974  0.37144760
   0.32455930  0.97932195  0.98950561
   0.53960043  0.85762395  0.89482020
   0.71905469  0.89745979  0.94562144
   0.37049150  0.09662236  0.09637930
   0.62806352  0.05377199  0.07890805
   0.86972976  0.56968769  0.93202206
   0.10385501  0.41039884  0.92567409
   0.19013882  0.37856906  0.04919958
   0.81337322  0.62703385  0.06041249
   0.01292676  0.51290955  0.14542099
   0.00000000  0.00000000  0.00835000
   0.50000000  0.50000000  0.00835000
   0.69870000  0.19870000  0.75040000
   0.30130000  0.80130000  0.75040000
   0.80130000  0.69870000  0.75040000
   0.19870000  0.30130000  0.75040000
   0.00000000  0.00000000  0.50970000
   0.50000000  0.50000000  0.50970000
   0.73403000  0.23403000  0.24900000
   0.26597000  0.76597000  0.24900000
   0.76597000  0.73403000  0.24900000
   0.23403000  0.26597000  0.24900000
   0.58783335  0.90451979  0.51735206
   0.40538839  0.09311255  0.51319153
   0.09833761  0.59661828  0.50359080
   0.92004577  0.40405435  0.51001926
   0.60523325  0.90727465  0.95184736
   0.40560587  0.02917964  0.03509843
   0.10426540  0.42552339  0.00700172
   0.88759935  0.57047767  0.01290575
   0.00000000  0.00000000  0.25380000
   0.50000000  0.50000000  0.25380000
   0.00000000  0.00000000  0.75370000
   0.50000000  0.50000000  0.75370000
Direct configuration=     4
   0.54448728  0.04464027  0.50415786
   0.00394254  0.50206343  0.45847992
   0.54952506  0.99899527  0.02404668
   0.00209307  0.50324843  0.05863069
   0.31777553  0.02550754  0.53451550
   0.51642990  0.82049865  0.53955514
   0.69898439  0.87904285  0.51005102
   0.38453632  0.20491133  0.50334069
   0.63000726  0.12664764  0.48198301
   0.92283129  0.39079315  0.59121241
   0.11562016  0.60134585  0.58431932
   0.15905432  0.66678796  0.45553728
   0.85195416  0.33502256  0.46682231
   0.99407042  0.50569667  0.37147371
   0.32451687  0.97935941  0.98948181
   0.53958553  0.85760120  0.89482197
   0.71901825  0.89741486  0.94562557
   0.37046238  0.09664211  0.09633508
   0.62805166  0.05383029  0.07886393
   0.86973000  0.56973114  0.93197322
   0.10392520  0.41040358  0.92571311
   0.19012542  0.37854847  0.04920527
   0.81339352  0.62703439  0.06032385
   0.01288186  0.51289825  0.14534856
   0.00000000  0.00000000  0.00835000
   0.50000000  0.50000000  0.00835000
   0.69870000  0.19870000  0.75040000
   0.30130000  0.80130000  0.75040000
   0.80130000  0.69870000  0.75040000
   0.19870000  0.30130000  0.75040000
   0.00000000  0.00000000  0.50970000
   0.50000000  0.50000000  0.50970000
   0.73403000  0.23403000  0.24900000
   0.26597000  0.76597000  0.24900000
   0.76597000  0.73403000  0.24900000
   0.23403000  0.26597000  0.24900000
   0.58786155  0.90454670  0.51735153
   0.40543288  0.09309455  0.51321848
   0.09834671  0.59655643  0.50357743
   0.92001333  0.40413336  0.51000252
   0.60523050  0.90731556  0.95190142
   0.40569697  0.02920395  0.03508498
   0.10425513  0.42547001  0.00703697
   0.88769020  0.57046471  0.01286980
   0.00000000  0.00000000  0.25380000
   0.50000000  0.50000000  0.25380000
   0.00000000  0.00000000  0.75370000
   0.50000000  0.50000000  0.75370000
Direct configuration=     5
   0.54448380  0.04464671  0.50415329
   0.00397794  0.50204476  0.45848485
   0.54953647  0.99897467  0.02406468
   0.00208584  0.50324413  0.05861962
   0.31776896  0.02548497  0.53453426
   0.51639990  0.82048070  0.53958695
   0.69899911  0.87904896  0.51005099
   0.38456676  0.20493800  0.50331298
   0.63001989  0.12668616  0.48195692
   0.92285641  0.39078340  0.59119519
   0.11563271  0.60136264  0.58430062
   0.15905868  0.66680255  0.45554310
   0.85196769  0.33499378  0.46682592
   0.99406938  0.50569439  0.37146512
   0.32453083  0.97934709  0.98948965
   0.53959043  0.85760869  0.89482139
   0.71903024  0.89742965  0.94562421
   0.37047196  0.09663561  0.09634963
   0.62805556  0.05381110  0.07887845
   0.86972992  0.56971684  0.93198929
   0.10390210  0.41040202  0.92570027
   0.19012983  0.37855524  0.04920340
   0.81338684  0.62703421  0.06035302
   0.01289663  0.51290196  0.14537239
   0.00000000  0.00000000  0.00835000
   0.50000000  0.50000000  0.00835000
   0.69870000  0.19870000  0.75040000
   0.30130000  0.80130000  0.75040000
   0.80130000  0.69870000  0.75040000
   0.19870000  0.30130000  0.75040000
   0.00000000  0.00000000  0.50970000
   0.50000000  0.50000000  0.50970000
   0.73403000  0.23403000  0.24900000
   0.26597000  0.76597000  0.24900000
   0.76597000  0.73403000  0.24900000
   0.23403000  0.26597000  0.24900000
   0.58785227  0.90453784  0.51735170
   0.40541824  0.09310047  0.51320961
   0.09834372  0.59657678  0.50358183
   0.92002400  0.40410736  0.51000803
   0.60523141  0.90730210  0.95188363
   0.40566699  0.02919595  0.03508941
   0.10425851  0.42548758  0.00702537
   0.88766030  0.57046898  0.01288163
   0.00000000  0.00000000  0.25380000
   0.50000000  0.50000000  0.25380000
   0.00000000  0.00000000  0.75370000
   0.50000000  0.50000000  0.75370000
Direct configuration=     6
   0.54448106  0.04463262  0.50416928
   0.00393041  0.50209194  0.45850873
   0.54953839  0.99902090  0.02403566
   0.00209925  0.50323916  0.05858860
   0.31776322  0.02550694  0.53449737
   0.51643849  0.82048860  0.53952124
   0.69899964  0.87903370  0.51004710
   0.38450633  0.20489635  0.50337403
   0.63002399  0.12663399  0.48200932
   0.92279965  0.39081714  0.59119996
   0.11559562  0.60132032  0.58430685
   0.15904526  0.66676352  0.45553609
   0.85193549  0.33506370  0.46682030
   0.99406174  0.50570342  0.37145283
   0.32453078  0.97938994  0.98948475
   0.53959227  0.85760440  0.89483910
   0.71901116  0.89739865  0.94563020
   0.37045515  0.09665821  0.09632050
   0.62805728  0.05386695  0.07885073
   0.86974707  0.56974334  0.93197059
   0.10395133  0.41040806  0.92573162
   0.19013051  0.37853314  0.04921608
   0.81340692  0.62703294  0.06028733
   0.01286885  0.51289987  0.14536813
   0.00000000  0.00000000  0.00835000
   0.50000000  0.50000000  0.00835000
   0.69870000  0.19870000  0.75040000
   0.30130000  0.80130000  0.75040000
   0.80130000  0.69870000  0.75040000
   0.19870000  0.30130000  0.75040000
   0.00000000  0.00000000  0.50970000
   0.50000000  0.50000000  0.50970000
   0.73403000  0.23403000  0.24900000
   0.26597000  0.76597000  0.24900000
   0.76597000  0.73403000  0.24900000
   0.23403000  0.26597000  0.24900000
   0.58787325  0.90455078  0.51734879
   0.40543634  0.09309863  0.51322836
   0.09836470  0.59655011  0.50359920
   0.91996617  0.40413479  0.51002894
   0.60521725  0.90729548  0.95188513
   0.40564751  0.02920785  0.03506097
   0.10425764  0.42544444  0.00704508
   0.88769369  0.57048150  0.01283314
   0.00000000  0.00000000  0.25380000
   0.50000000  0.50000000  0.25380000
   0.00000000  0.00000000  0.75370000
   0.50000000  0.50000000  0.75370000
Direct configuration=     7
   0.54447741  0.04461383  0.50419060
   0.00386708  0.50215482  0.45854054
   0.54954096  0.99908250  0.02399700
   0.00211711  0.50323254  0.05854727
   0.31775557  0.02553620  0.53444821
   0.51648990  0.82049913  0.53943367
   0.69900036  0.87901338  0.51004191
   0.38442580  0.20484086  0.50345539
   0.63002947  0.12656446  0.48207916
   0.92272403  0.39086209  0.59120632
   0.11554620  0.60126392  0.58431514
   0.15902738  0.66671150  0.45552675
   0.85189259  0.33515688  0.46681281
   0.99405155  0.50571545  0.37143646
   0.32453072  0.97944705  0.98947823
   0.53959473  0.85759868  0.89486270
   0.71898574  0.89735734  0.94563817
   0.37043276  0.09668833  0.09628169
   0.62805957  0.05394138  0.07881378
   0.86976992  0.56977865  0.93194568
   0.10401693  0.41041612  0.92577339
   0.19013141  0.37850369  0.04923297
   0.81343366  0.62703125  0.06019980
   0.01283182  0.51289707  0.14536244
   0.00000000  0.00000000  0.00835000
   0.50000000  0.50000000  0.00835000
   0.69870000  0.19870000  0.75040000
   0.30130000  0.80130000  0.75040000
   0.80130000  0.69870000  0.75040000
   0.19870000  0.30130000  0.75040000
   0.00000000  0.00000000  0.50970000
   0.50000000  0.50000000  0.50970000
   0.73403000  0.23403000  0.24900000
   0.26597000  0.76597000  0.24900000
   0.76597000  0.73403000  0.24900000
   0.23403000  0.26597000  0.24900000
   0.58790122  0.90456802  0.51734490
   0.40546045  0.09309617  0.51325335
   0.09839265  0.59651458  0.50362234
   0.91988912  0.40417134  0.51005680
   0.60519838  0.90728665  0.95188713
   0.40562156  0.02922372  0.03502307
   0.10425647  0.42538696  0.00707133
   0.88773817  0.57049819  0.01276851
   0.00000000  0.00000000  0.25380000
   0.50000000  0.50000000  0.25380000
   0.00000000  0.00000000  0.75370000
   0.50000000  0.50000000  0.75370000
Direct configuration=     8
   0.54447935  0.04461486  0.50421018
   0.00382651  0.50216963  0.45855313
   0.54953108  0.99912238  0.02397816
   0.00210704  0.50323664  0.05853234
   0.31773123  0.02552460  0.53441767
   0.51649236  0.82046516  0.53937678
   0.69903256  0.87900212  0.51003334
   0.38437935  0.20484428  0.50351076
   0.63006621  0.12655447  0.48212457
   0.92266259  0.39089571  0.59121394
   0.11551669  0.60122724  0.58432436
   0.15902116  0.66667713  0.45552624
   0.85184018  0.33521355  0.46680373
   0.99403717  0.50572951  0.37144088
   0.32451187  0.97947131  0.98945671
   0.53958400  0.85758645  0.89487438
   0.71897385  0.89732791  0.94564503
   0.37041974  0.09671345  0.09624984
   0.62806161  0.05400441  0.07878432
   0.86979457  0.56979876  0.93190263
   0.10406663  0.41041733  0.92578827
   0.19014559  0.37847321  0.04925900
   0.81345122  0.62703496  0.06014045
   0.01280225  0.51289734  0.14535855
   0.00000000  0.00000000  0.00835000
   0.50000000  0.50000000  0.00835000
   0.69870000  0.19870000  0.75040000
   0.30130000  0.80130000  0.75040000
   0.80130000  0.69870000  0.75040000
   0.19870000  0.30130000  0.75040000
   0.00000000  0.00000000  0.50970000
   0.50000000  0.50000000  0.50970000
   0.73403000  0.23403000  0.24900000
   0.26597000  0.76597000  0.24900000
   0.76597000  0.73403000  0.24900000
   0.23403000  0.26597000  0.24900000
   0.58792274  0.90456254  0.51733883
   0.40544918  0.09307646  0.51327449
   0.09840079  0.59649223  0.50363427
   0.91984302  0.40422786  0.51007105
   0.60519906  0.90727750  0.95188253
   0.40561566  0.02926681  0.03501221
   0.10427014  0.42533837  0.00707796
   0.88776870  0.57051761  0.01273395
   0.00000000  0.00000000  0.25380000
   0.50000000  0.50000000  0.25380000
   0.00000000  0.00000000  0.75370000
   0.50000000  0.50000000  0.75370000
Direct configuration=     9
   0.54448515  0.04461794  0.50426893
   0.00370480  0.50221407  0.45859092
   0.54950146  0.99924204  0.02392166
   0.00207683  0.50324893  0.05848756
   0.31765822  0.02548977  0.53432604
   0.51649974  0.82036324  0.53920609
   0.69912919  0.87896835  0.51000761
   0.38423999  0.20485454  0.50367686
   0.63017642  0.12652451  0.48226081
   0.92247828  0.39099660  0.59123680
   0.11542817  0.60111723  0.58435203
   0.15900252  0.66657402  0.45552468
   0.85168293  0.33538357  0.46677650
   0.99399402  0.50577169  0.37145413
   0.32445532  0.97954410  0.98939215
   0.53955182  0.85754977  0.89490944
   0.71893817  0.89723960  0.94566560
   0.37038070  0.09678882  0.09615427
   0.62806775  0.05419350  0.07869594
   0.86986855  0.56985910  0.93177348
   0.10421572  0.41042098  0.92583291
   0.19018813  0.37838177  0.04933709
   0.81350389  0.62704606  0.05996239
   0.01271354  0.51289813  0.14534689
   0.00000000  0.00000000  0.00835000
   0.50000000  0.50000000  0.00835000
   0.69870000  0.19870000  0.75040000
   0.30130000  0.80130000  0.75040000
   0.80130000  0.69870000  0.75040000
   0.19870000  0.30130000  0.75040000
   0.00000000  0.00000000  0.50970000
   0.50000000  0.50000000  0.50970000
   0.73403000  0.23403000  0.24900000
   0.26597000  0.76597000  0.24900000
   0.76597000  0.73403000  0.24900000
   0.23403000  0.26597000  0.24900000
   0.58798728  0.90454610  0.51732062
   0.40541535  0.09301730  0.51333789
   0.09842522  0.59642520  0.50367009
   0.91970472  0.40439741  0.51011381
   0.60520111  0.90725003  0.95186873
   0.40559796  0.02939610  0.03497963
   0.10431114  0.42519260  0.00709784
   0.88786027  0.57057586  0.01263027
   0.00000000  0.00000000  0.25380000
   0.50000000  0.50000000  0.25380000
   0.00000000  0.00000000  0.75370000
   0.50000000  0.50000000  0.75370000
Direct configuration=    10
   0.54448896  0.04461806  0.50428025
   0.00369335  0.50222499  0.45859278
   0.54950106  0.99925858  0.02391137
   0.00208193  0.50324267  0.05848249
   0.31764014  0.02547403  0.53431163
   0.51649927  0.82034205  0.53917588
   0.69914699  0.87896463  0.51000241
   0.38422034  0.20485519  0.50370620
   0.63019732  0.12652570  0.48228503
   0.92244478  0.39101505  0.59124314
   0.11541531  0.60109977  0.58435949
   0.15900194  0.66655758  0.45552597
   0.85165521  0.33541617  0.46677460
   0.99398438  0.50577967  0.37146084
   0.32444841  0.97955828  0.98938181
   0.53954327  0.85754033  0.89491338
   0.71893660  0.89722417  0.94566909
   0.37037194  0.09680947  0.09614232
   0.62806747  0.05422741  0.07867877
   0.86988466  0.56986856  0.93174926
   0.10424309  0.41041937  0.92583471
   0.19019521  0.37836527  0.04935229
   0.81350895  0.62705220  0.05993445
   0.01269652  0.51289859  0.14534217
   0.00000000  0.00000000  0.00835000
   0.50000000  0.50000000  0.00835000
   0.69870000  0.19870000  0.75040000
   0.30130000  0.80130000  0.75040000
   0.80130000  0.69870000  0.75040000
   0.19870000  0.30130000  0.75040000
   0.00000000  0.00000000  0.50970000
   0.50000000  0.50000000  0.50970000
   0.73403000  0.23403000  0.24900000
   0.26597000  0.76597000  0.24900000
   0.76597000  0.73403000  0.24900000
   0.23403000  0.26597000  0.24900000
   0.58799636  0.90453810  0.51731714
   0.40540878  0.09301592  0.51334741
   0.09842316  0.59641105  0.50367253
   0.91966995  0.40441999  0.51011706
   0.60519511  0.90725250  0.95187141
   0.40559340  0.02941236  0.03496539
   0.10431209  0.42517416  0.00710769
   0.88787579  0.57058624  0.01260688
   0.00000000  0.00000000  0.25380000
   0.50000000  0.50000000  0.25380000
   0.00000000  0.00000000  0.75370000
   0.50000000  0.50000000  0.75370000
Direct configuration=    11
   0.54450036  0.04461843  0.50431422
   0.00365900  0.50225774  0.45859838
   0.54949986  0.99930820  0.02388047
   0.00209724  0.50322388  0.05846728
   0.31758591  0.02542681  0.53426841
   0.51649786  0.82027848  0.53908524
   0.69920042  0.87895348  0.50998681
   0.38416138  0.20485713  0.50379424
   0.63026004  0.12652925  0.48235769
   0.92234427  0.39107040  0.59126216
   0.11537673  0.60104740  0.58438188
   0.15900019  0.66650827  0.45552986
   0.85157205  0.33551398  0.46676892
   0.99395547  0.50580361  0.37148095
   0.32442769  0.97960080  0.98935082
   0.53951762  0.85751200  0.89492519
   0.71893189  0.89717789  0.94567955
   0.37034566  0.09687144  0.09610646
   0.62806663  0.05432912  0.07862726
   0.86993302  0.56989694  0.93167660
   0.10432520  0.41041455  0.92584012
   0.19021647  0.37831579  0.04939787
   0.81352412  0.62707062  0.05985065
   0.01264546  0.51289999  0.14532801
   0.00000000  0.00000000  0.00835000
   0.50000000  0.50000000  0.00835000
   0.69870000  0.19870000  0.75040000
   0.30130000  0.80130000  0.75040000
   0.80130000  0.69870000  0.75040000
   0.19870000  0.30130000  0.75040000
   0.00000000  0.00000000  0.50970000
   0.50000000  0.50000000  0.50970000
   0.73403000  0.23403000  0.24900000
   0.26597000  0.76597000  0.24900000
   0.76597000  0.73403000  0.24900000
   0.23403000  0.26597000  0.24900000
   0.58802359  0.90451410  0.51730671
   0.40538909  0.09301180  0.51337597
   0.09841698  0.59636859  0.50367986
   0.91956562  0.40448773  0.51012679
   0.60517712  0.90725990  0.95187946
   0.40557972  0.02946115  0.03492267
   0.10431496  0.42511886  0.00713726
   0.88792232  0.57061739  0.01253670
   0.00000000  0.00000000  0.25380000
   0.50000000  0.50000000  0.25380000
   0.00000000  0.00000000  0.75370000
   0.50000000  0.50000000  0.75370000
Direct configuration=    12
   0.54452318  0.04461918  0.50438216
   0.00359030  0.50232325  0.45860959
   0.54949746  0.99940745  0.02381869
   0.00212784  0.50318630  0.05843688
   0.31747744  0.02533236  0.53418196
   0.51649502  0.82015134  0.53890396
   0.69930726  0.87893117  0.50995562
   0.38404346  0.20486101  0.50397031
   0.63038547  0.12653635  0.48250299
   0.92214326  0.39118112  0.59130021
   0.11529957  0.60094267  0.58442665
   0.15899669  0.66640964  0.45553762
   0.85140573  0.33570958  0.46675757
   0.99389764  0.50585149  0.37152117
   0.32438626  0.97968585  0.98928884
   0.53946631  0.85745536  0.89494883
   0.71892248  0.89708533  0.94570048
   0.37029310  0.09699537  0.09603475
   0.62806495  0.05453256  0.07852425
   0.87002972  0.56995372  0.93153127
   0.10448941  0.41040490  0.92585094
   0.19025899  0.37821683  0.04948905
   0.81355446  0.62710745  0.05968304
   0.01254334  0.51290278  0.14529969
   0.00000000  0.00000000  0.00835000
   0.50000000  0.50000000  0.00835000
   0.69870000  0.19870000  0.75040000
   0.30130000  0.80130000  0.75040000
   0.80130000  0.69870000  0.75040000
   0.19870000  0.30130000  0.75040000
   0.00000000  0.00000000  0.50970000
   0.50000000  0.50000000  0.50970000
   0.73403000  0.23403000  0.24900000
   0.26597000  0.76597000  0.24900000
   0.76597000  0.73403000  0.24900000
   0.23403000  0.26597000  0.24900000
   0.58807807  0.90446609  0.51728583
   0.40534971  0.09300355  0.51343308
   0.09840462  0.59628369  0.50369451
   0.91935698  0.40462320  0.51014625
   0.60514114  0.90727471  0.95189557
   0.40555236  0.02955872  0.03483723
   0.10432069  0.42500825  0.00719641
   0.88801540  0.57067967  0.01239634
   0.00000000  0.00000000  0.25380000
   0.50000000  0.50000000  0.25380000
   0.00000000  0.00000000  0.75370000
   0.50000000  0.50000000  0.75370000
Direct configuration=    13
   0.54456882  0.04462068  0.50451803
   0.00345291  0.50245426  0.45863200
   0.54949266  0.99960593  0.02369513
   0.00218905  0.50311114  0.05837606
   0.31726050  0.02514347  0.53400905
   0.51648936  0.81989706  0.53854141
   0.69952094  0.87888655  0.50989323
   0.38380763  0.20486876  0.50432245
   0.63063634  0.12655056  0.48279361
   0.92174123  0.39140254  0.59137631
   0.11514525  0.60073319  0.58451620
   0.15898970  0.66621239  0.45555315
   0.85107309  0.33610080  0.46673486
   0.99378199  0.50594724  0.37160161
   0.32430339  0.97985595  0.98916487
   0.53936369  0.85734207  0.89499609
   0.71890366  0.89690022  0.94574233
   0.37018798  0.09724322  0.09589132
   0.62806160  0.05493942  0.07831823
   0.87022314  0.57006726  0.93124062
   0.10481783  0.41038560  0.92587258
   0.19034403  0.37801890  0.04967140
   0.81361513  0.62718110  0.05934782
   0.01233910  0.51290836  0.14524304
   0.00000000  0.00000000  0.00835000
   0.50000000  0.50000000  0.00835000
   0.69870000  0.19870000  0.75040000
   0.30130000  0.80130000  0.75040000
   0.80130000  0.69870000  0.75040000
   0.19870000  0.30130000  0.75040000
   0.00000000  0.00000000  0.50970000
   0.50000000  0.50000000  0.50970000
   0.73403000  0.23403000  0.24900000
   0.26597000  0.76597000  0.24900000
   0.76597000  0.73403000  0.24900000
   0.23403000  0.26597000  0.24900000
   0.58818702  0.90437008  0.51724408
   0.40527094  0.09298705  0.51354731
   0.09837990  0.59611388  0.50372383
   0.91893969  0.40489414  0.51018517
   0.60506918  0.90730432  0.95192777
   0.40549764  0.02975387  0.03466635
   0.10433214  0.42478702  0.00731469
   0.88820154  0.57080425  0.01211561
   0.00000000  0.00000000  0.25380000
   0.50000000  0.50000000  0.25380000
   0.00000000  0.00000000  0.75370000
   0.50000000  0.50000000  0.75370000
Direct configuration=    14
   0.54454447  0.04461988  0.50444553
   0.00352623  0.50238435  0.45862004
   0.54949522  0.99950001  0.02376106
   0.00215639  0.50315125  0.05840851
   0.31737626  0.02524427  0.53410132
   0.51649238  0.82003275  0.53873488
   0.69940692  0.87891036  0.50992652
   0.38393348  0.20486462  0.50413454
   0.63050248  0.12654298  0.48263853
   0.92195576  0.39128439  0.59133570
   0.11522760  0.60084497  0.58446841
   0.15899343  0.66631764  0.45554486
   0.85125059  0.33589204  0.46674698
   0.99384370  0.50589615  0.37155868
   0.32434761  0.97976518  0.98923102
   0.53941845  0.85740252  0.89497087
   0.71891370  0.89699900  0.94572000
   0.37024407  0.09711096  0.09596785
   0.62806339  0.05472231  0.07842816
   0.87011993  0.57000667  0.93139571
   0.10464258  0.41039589  0.92586103
   0.19029865  0.37812452  0.04957409
   0.81358276  0.62714180  0.05952670
   0.01244808  0.51290538  0.14527327
   0.00000000  0.00000000  0.00835000
   0.50000000  0.50000000  0.00835000
   0.69870000  0.19870000  0.75040000
   0.30130000  0.80130000  0.75040000
   0.80130000  0.69870000  0.75040000
   0.19870000  0.30130000  0.75040000
   0.00000000  0.00000000  0.50970000
   0.50000000  0.50000000  0.50970000
   0.73403000  0.23403000  0.24900000
   0.26597000  0.76597000  0.24900000
   0.76597000  0.73403000  0.24900000
   0.23403000  0.26597000  0.24900000
   0.58812889  0.90442131  0.51726636
   0.40531297  0.09299585  0.51348636
   0.09839309  0.59620449  0.50370819
   0.91916236  0.40474956  0.51016440
   0.60510758  0.90728852  0.95191059
   0.40552684  0.02964974  0.03475754
   0.10432603  0.42490507  0.00725157
   0.88810221  0.57073777  0.01226541
   0.00000000  0.00000000  0.25380000
   0.50000000  0.50000000  0.25380000
   0.00000000  0.00000000  0.75370000
   0.50000000  0.50000000  0.75370000
Direct configuration=    15
   0.54455882  0.04461555  0.50449184
   0.00346296  0.50237324  0.45862943
   0.54947992  0.99956935  0.02373784
   0.00214029  0.50314397  0.05838581
   0.31732672  0.02517219  0.53404700
   0.51650547  0.81995943  0.53861673
   0.69943959  0.87891218  0.50990702
   0.38388871  0.20485814  0.50424314
   0.63055486  0.12655672  0.48273888
   0.92182268  0.39135784  0.59134930
   0.11518993  0.60078941  0.58448694
   0.15900565  0.66626434  0.45556050
   0.85112419  0.33600331  0.46674217
   0.99379818  0.50592960  0.37157913
   0.32433439  0.97981810  0.98919409
   0.53938782  0.85736729  0.89499190
   0.71889651  0.89694863  0.94573523
   0.37021583  0.09719852  0.09592256
   0.62805247  0.05484698  0.07835645
   0.87020079  0.57003351  0.93130306
   0.10474773  0.41038409  0.92587481
   0.19029406  0.37807612  0.04962651
   0.81359388  0.62717582  0.05943117
   0.01237830  0.51290759  0.14524865
   0.00000000  0.00000000  0.00835000
   0.50000000  0.50000000  0.00835000
   0.69870000  0.19870000  0.75040000
   0.30130000  0.80130000  0.75040000
   0.80130000  0.69870000  0.75040000
   0.19870000  0.30130000  0.75040000
   0.00000000  0.00000000  0.50970000
   0.50000000  0.50000000  0.50970000
   0.73403000  0.23403000  0.24900000
   0.26597000  0.76597000  0.24900000
   0.76597000  0.73403000  0.24900000
   0.23403000  0.26597000  0.24900000
   0.58814536  0.90439097  0.51725006
   0.40530530  0.09297958  0.51351930
   0.09839784  0.59618072  0.50373284
   0.91903668  0.40484617  0.51017310
   0.60509547  0.90728610  0.95190408
   0.40551036  0.02971233  0.03469462
   0.10436208  0.42482716  0.00727725
   0.88819166  0.57075593  0.01218739
   0.00000000  0.00000000  0.25380000
   0.50000000  0.50000000  0.25380000
   0.00000000  0.00000000  0.75370000
   0.50000000  0.50000000  0.75370000
Direct configuration=    16
   0.54458870  0.04460654  0.50458826
   0.00333124  0.50235009  0.45864898
   0.54944806  0.99971373  0.02368949
   0.00210677  0.50312883  0.05833853
   0.31722356  0.02502212  0.53393390
   0.51653273  0.81980676  0.53837074
   0.69950763  0.87891598  0.50986641
   0.38379550  0.20484463  0.50446926
   0.63066395  0.12658534  0.48294783
   0.92154559  0.39151079  0.59137763
   0.11511151  0.60067373  0.58452552
   0.15903108  0.66615336  0.45559305
   0.85086101  0.33623500  0.46673217
   0.99370340  0.50599926  0.37162170
   0.32430684  0.97992828  0.98911720
   0.53932404  0.85729394  0.89503567
   0.71886071  0.89684376  0.94576695
   0.37015701  0.09738085  0.09582824
   0.62802972  0.05510658  0.07820713
   0.87036916  0.57008940  0.93111013
   0.10496666  0.41035951  0.92590350
   0.19028451  0.37797536  0.04973566
   0.81361704  0.62724667  0.05923226
   0.01223299  0.51291218  0.14519739
   0.00000000  0.00000000  0.00835000
   0.50000000  0.50000000  0.00835000
   0.69870000  0.19870000  0.75040000
   0.30130000  0.80130000  0.75040000
   0.80130000  0.69870000  0.75040000
   0.19870000  0.30130000  0.75040000
   0.00000000  0.00000000  0.50970000
   0.50000000  0.50000000  0.50970000
   0.73403000  0.23403000  0.24900000
   0.26597000  0.76597000  0.24900000
   0.76597000  0.73403000  0.24900000
   0.23403000  0.26597000  0.24900000
   0.58817966  0.90432778  0.51721612
   0.40528934  0.09294570  0.51358791
   0.09840774  0.59613122  0.50378418
   0.91877500  0.40504734  0.51019121
   0.60507025  0.90728105  0.95189054
   0.40547605  0.02984265  0.03456363
   0.10443715  0.42466494  0.00733071
   0.88837791  0.57079373  0.01202495
   0.00000000  0.00000000  0.25380000
   0.50000000  0.50000000  0.25380000
   0.00000000  0.00000000  0.75370000
   0.50000000  0.50000000  0.75370000
Direct configuration=    17
   0.54460020  0.04459793  0.50463600
   0.00329322  0.50235170  0.45866901
   0.54942945  0.99976522  0.02365446