LAMMPS data file via write_data, version 23 Jun 2022, timestep = 10000

160 atoms
3 atom types

0.8853517113581635 16.826648288641827 xlo xhi
0.40104672771464506 16.750953272285358 ylo yhi
0.9428803474180637 24.001119652581934 zlo zhi
0 0 0 xy xz yz

Masses

1 132.904999
2 126.90447
3 204.199997

Pair Coeffs # lj/cut/coul/long

1 0.0898565 3.52101
2 0.0427844 5.04975
3 0.094278 4.043

Atoms # full

1 0 1 0.85 4.9712133218175865 4.432602468337117 3.909544445780452 0 0 0
2 0 1 0.85 4.755524061328391 4.713146000776242 9.58688161964448 0 0 0
3 0 1 0.85 16.82032532539382 16.696275515446413 9.59277037699754 -1 -1 0
4 0 1 0.85 8.835217431064576 8.686293480711148 3.8874716110143983 0 0 0
5 0 1 0.85 4.911390091344069 4.479971248743604 15.616744959248406 0 0 0
6 0 1 0.85 4.953047416409428 4.479289647941277 21.174923663806805 0 0 0
7 0 1 0.85 16.763104080255186 16.690099384928416 21.145267305342937 -1 -1 0
8 0 1 0.85 8.655898455603383 8.584546592511057 15.325993778903374 0 0 0
9 0 1 0.85 4.89149040492939 12.546134969245477 3.703126002860723 0 0 0
10 0 1 0.85 4.976543613172037 12.760732281843463 9.360868837813689 0 0 0
11 0 1 0.85 16.819803871436854 8.606335933301551 9.489596236453355 -1 0 0
12 0 1 0.85 8.957768779248466 0.409358422902579 3.7726166874002542 0 1 0
13 0 1 0.85 4.8094478756830625 12.823760972068 15.422292586410835 0 0 0
14 0 1 0.85 4.822706913925552 12.578799841245024 21.06372762845037 0 0 0
15 0 1 0.85 0.9417939391790968 8.633663176517329 20.98061553788597 0 0 0
16 0 1 0.85 8.772669109909986 0.41976386888682116 15.406284583841659 0 1 0
17 0 1 0.85 12.930759832499936 4.541463770998634 3.937783438936784 0 0 0
18 0 1 0.85 12.87584948383685 4.412806166252524 9.815165436976477 0 0 0
19 0 1 0.85 8.824853666809748 0.5888905516679684 9.61750851595619 0 0 0
20 0 1 0.85 16.810516958855978 8.625442208276858 3.7495922017472414 0 0 0
21 0 1 0.85 12.819775043090361 4.359415686717692 15.386305890732086 0 0 0
22 0 1 0.85 12.896704971991918 4.369400578645918 21.12005367570669 0 0 0
23 0 1 0.85 8.956463351435165 0.6087023222159549 21.239586696409887 0 0 0
24 0 1 0.85 16.763415934407117 8.480110631112428 15.288352455903437 0 0 0
25 0 1 0.85 12.744787186571319 12.545024184823067 3.896520906092397 0 0 0
26 0 1 0.85 12.850858534956924 12.647763715590282 9.633908882905207 0 0 0
27 0 1 0.85 9.076640951507022 8.688605908244925 9.56448184785853 0 0 0
28 0 1 0.85 0.9379717725474437 0.44049925262906914 3.830898777320973 1 1 0
29 0 1 0.85 12.722487490808774 12.612135159374246 15.473096887385093 0 0 0
30 0 1 0.85 12.978873486696367 12.491876183784152 21.17148912638934 0 0 0
31 0 1 0.85 9.0440179260941 8.593663285340055 21.069290233235023 0 0 0
32 0 1 0.85 16.757029647784943 16.58471953480002 15.429031548851336 0 0 0
33 0 2 -0.85 0.9928560613571775 4.468418857000531 3.807655659682466 0 0 0
34 0 2 -0.85 8.813178672436294 4.481512577741458 9.57041710788291 0 0 0
35 0 2 -0.85 4.846020892512169 0.5516997995791899 9.448597882958053 0 0 0
36 0 2 -0.85 4.736687216384596 8.608517643120955 3.770638095161452 0 0 0
37 0 2 -0.85 2.7411295932177535 6.558401981210782 12.306489091035463 0 0 0
38 0 2 -0.85 6.829614133914299 2.6499017461094896 1.0334302288089408 0 0 0
39 0 2 -0.85 2.7786549740009874 2.3360643950821385 23.99476783122704 0 0 -1
40 0 2 -0.85 6.761436611762745 6.387158797125795 12.520027609673784 0 0 0
41 0 2 -0.85 6.955124892599061 2.3441632671579975 6.734936784086121 0 0 0
42 0 2 -0.85 2.8717887650758156 6.557115551737603 6.612171726836773 0 0 0
43 0 2 -0.85 6.8370076438684855 6.5919535437463335 6.495983597935624 0 0 0
44 0 2 -0.85 2.8481732910825923 2.5516344599740433 6.665683891570159 0 0 0
45 0 2 -0.85 16.806644817847722 4.376898761438067 15.412571896702508 -1 0 0
46 0 2 -0.85 8.843864489647276 4.58183326428932 21.095148832846725 0 0 0
47 0 2 -0.85 4.801885649308764 0.4433109857652152 20.977672229818584 0 0 0
48 0 2 -0.85 4.991362836798018 8.313107312896523 15.29835050791721 0 0 0
49 0 2 -0.85 3.0273867542836146 6.400812218963425 0.9457609133810201 0 0 1
50 0 2 -0.85 6.791550677396414 2.455269970896035 12.347295375061078 0 0 0
51 0 2 -0.85 2.885955737827565 2.5469142038189494 12.315116778461855 0 0 0
52 0 2 -0.85 6.964302056743884 6.66816449421545 1.0846644814551927 0 0 1
53 0 2 -0.85 6.851758192577487 2.2830759756434076 18.193872844506128 0 0 0
54 0 2 -0.85 2.925471722698396 6.5327605376982465 18.250692798938008 0 0 0
55 0 2 -0.85 7.047219831982381 6.618154648134715 18.38654152929669 0 0 0
56 0 2 -0.85 2.7781766597902413 2.3710004638628566 18.168425987029316 0 0 0
57 0 2 -0.85 16.725987949737863 12.619798188562488 3.8770660557493493 -1 0 0
58 0 2 -0.85 8.834578624141724 12.501063235553055 9.527041288187911 0 0 0
59 0 2 -0.85 4.893266904918247 8.707219602365003 9.528642929920357 0 0 0
60 0 2 -0.85 4.937516646336627 0.42061344081039403 3.788617405002163 0 1 0
61 0 2 -0.85 2.9051255565140397 14.668295874449086 12.476692107838296 0 0 0
62 0 2 -0.85 6.813399541598161 10.630375266823572 23.878805218276618 0 0 -1
63 0 2 -0.85 2.712807910147678 10.50598571675016 0.9616055351398611 0 0 0
64 0 2 -0.85 6.849549447713054 14.706358312296663 12.542242344140753 0 0 0
65 0 2 -0.85 6.932169900593592 10.731631700059717 6.4479852034986385 0 0 0
66 0 2 -0.85 2.7633695409754955 14.918909604570441 6.6410782430683915 0 0 0
67 0 2 -0.85 6.716868198066034 14.72061649222514 6.569480389121943 0 0 0
68 0 2 -0.85 2.8329676026490156 10.78050154968842 6.74821290755909 0 0 0
69 0 2 -0.85 0.8982777437691264 12.537941493537058 15.46779097878417 0 0 0
70 0 2 -0.85 8.890012600155327 12.622506213473805 21.157796832980075 0 0 0
71 0 2 -0.85 4.935800126323471 8.566441813053334 21.100567548446314 0 0 0
72 0 2 -0.85 4.726062925577414 16.71014463765815 15.317073844826147 0 0 0
73 0 2 -0.85 2.7752495081250554 14.737326763573265 23.986754037293313 0 0 0
74 0 2 -0.85 6.779992356072794 10.689230979499774 12.494655489857896 0 0 0
75 0 2 -0.85 2.87472499248179 10.535827352012552 12.386315575018036 0 0 0
76 0 2 -0.85 6.732946453783575 14.713566908068602 23.927234417463715 0 0 0
77 0 2 -0.85 6.820079358643861 10.6395634868659 18.205898177468995 0 0 0
78 0 2 -0.85 2.9042993155261825 14.583023962105337 18.119866927248054 0 0 0
79 0 2 -0.85 6.868239746449066 14.652228373900368 18.25094800420242 0 0 0
80 0 2 -0.85 2.950487952288726 10.561517959250109 18.30231381663319 0 0 0
81 0 2 -0.85 8.930343749267976 4.447413149002617 3.7675839518623118 0 0 0
82 0 2 -0.85 16.698113331427674 4.636806523447785 9.605903495141371 0 0 0
83 0 2 -0.85 12.937428794365925 16.705667498340404 9.658317393810956 0 -1 0
84 0 2 -0.85 12.816545462929595 8.745895033593186 3.8470215526493168 0 0 0
85 0 2 -0.85 10.72492639742243 6.594835474552551 12.496406391752208 0 0 0
86 0 2 -0.85 14.938718072503928 2.3829501719481803 23.897199429007017 0 0 -1
87 0 2 -0.85 10.91226029226709 2.5298888189115893 1.0088192152518534 0 0 0
88 0 2 -0.85 14.738807996483967 6.402554887582128 12.685134489422467 0 0 0
89 0 2 -0.85 14.736011079827074 2.504354137374478 6.762475901832246 0 0 0
90 0 2 -0.85 10.937011604421883 6.521847506315451 6.670952274788088 0 0 0
91 0 2 -0.85 14.961734032288595 6.708089069016174 6.637434269802093 0 0 0
92 0 2 -0.85 10.9116658802189 2.499952560520945 6.684476322690425 0 0 0
93 0 2 -0.85 8.84968513437834 4.38842374284837 15.350526361507459 0 0 0
94 0 2 -0.85 0.9627874985144789 4.458539224201672 21.1117128796975 1 0 0
95 0 2 -0.85 12.796673331663694 16.73695048155187 21.153259602942754 0 -1 0
96 0 2 -0.85 12.844984661358316 8.656611854479102 15.451686551802945 0 0 0
97 0 2 -0.85 10.904822166555851 6.642803146064208 0.9690992791198593 0 0 1
98 0 2 -0.85 14.814855875648318 2.448584285322465 12.499200764246439 0 0 0
99 0 2 -0.85 10.931728754768951 2.4867186581613745 12.49108972106004 0 0 0
100 0 2 -0.85 14.765002584614699 6.4963416651101324 1.019202316529009 0 0 1
101 0 2 -0.85 14.761867703401094 2.3538072504084315 18.298241230494362 0 0 0
102 0 2 -0.85 10.94462276125503 6.38907927144137 18.22730190040568 0 0 0
103 0 2 -0.85 14.935327008215834 6.523849324905905 18.10486300676442 0 0 0
104 0 2 -0.85 10.84442417321079 2.3615362019225827 18.14388430821572 0 0 0
105 0 2 -0.85 8.769613730169691 12.59677971049326 3.802243687623133 0 0 0
106 0 2 -0.85 0.9395853456038906 12.82507694522492 9.65453210306673 1 0 0
107 0 2 -0.85 13.01382807604892 8.29821747611844 9.68925326151996 0 0 0
108 0 2 -0.85 12.833649519743139 0.5747145662449182 3.801551668645513 0 1 0
109 0 2 -0.85 10.744569810331503 14.807062049894665 12.43898727854748 0 0 0
110 0 2 -0.85 14.747942621182933 10.692394523569485 23.988763285480516 0 0 -1
111 0 2 -0.85 10.831943228999675 10.539185050536378 1.1263565783515304 0 0 0
112 0 2 -0.85 14.897589122203122 14.63727426450228 12.670483316219347 0 0 0
113 0 2 -0.85 14.949366053384283 10.639679022160323 6.831530052019696 0 0 0
114 0 2 -0.85 10.817443766913925 14.847910120354392 6.958456266487231 0 0 0
115 0 2 -0.85 14.773962081134902 14.73467199953769 6.676658290310473 0 0 0
116 0 2 -0.85 10.944039753582105 10.700471633334772 6.776041373489733 0 0 0
117 0 2 -0.85 8.744499202697273 12.551963405753861 15.397086765263133 0 0 0
118 0 2 -0.85 0.9438211130013493 12.697719481534861 21.173508522868104 1 0 0
119 0 2 -0.85 12.949104104016525 8.441044827099605 21.096241268660478 0 0 0
120 0 2 -0.85 12.79034886454532 0.44528729351666013 15.369661441048281 0 1 0
121 0 2 -0.85 10.779629316589304 14.798338872009777 23.930680927101136 0 0 0
122 0 2 -0.85 14.80565211686272 10.634603305109174 12.555605099025934 0 0 0
123 0 2 -0.85 10.784896720402637 10.63353920702053 12.481788836185778 0 0 0
124 0 2 -0.85 14.809555301935854 14.759711820625336 23.971167211001404 0 0 0
125 0 2 -0.85 14.926013081229573 10.500326601714054 18.384260435200293 0 0 0
126 0 2 -0.85 10.814225561977578 14.676817978399498 18.189656290839494 0 0 0
127 0 2 -0.85 14.830355079346548 14.586973379354031 18.361543856274622 0 0 0
128 0 2 -0.85 10.813967900631678 10.499860665306084 18.11909328400533 0 0 0
129 0 3 1.7 0.9495866067910215 4.437450282923974 23.991014251375542 0 0 -1
130 0 3 1.7 4.861810828727117 0.42580152205130145 23.862331515427904 0 0 -1
131 0 3 1.7 16.739117026439477 4.50439828708117 6.6993642925296 -1 0 0
132 0 3 1.7 4.817791813166433 0.4636885522999185 6.58529774083439 0 0 0
133 0 3 1.7 16.732656800432395 4.503045693500617 12.466672861147256 -1 0 0
134 0 3 1.7 4.8210850183372544 0.44118631699066235 12.376376250497422 0 0 0
135 0 3 1.7 0.8948641797736377 4.443235321439424 18.308351192815632 0 0 0
136 0 3 1.7 4.8264430136564656 16.61595478804038 18.17568407694576 0 -1 0
137 0 3 1.7 16.81331398468269 12.62162946535872 23.96578741973151 -1 0 -1
138 0 3 1.7 4.812033946499293 8.55233311656425 23.960649989082604 0 0 -1
139 0 3 1.7 16.73318761984428 12.827586360958838 6.751590357586295 -1 0 0
140 0 3 1.7 4.861146253756377 8.778604257725542 6.661819105707226 0 0 0
141 0 3 1.7 0.9520761962026313 12.64141238189349 12.629693395358247 0 0 0
142 0 3 1.7 4.918615299590817 8.565922102466125 12.436113930316141 0 0 0
143 0 3 1.7 0.9644311829937915 12.519642936075902 18.24054740584845 0 0 0
144 0 3 1.7 5.00554162557285 8.574586640109333 18.258190527064336 0 0 0
145 0 3 1.7 8.941559409917499 4.552070500658337 0.9821547901616778 0 0 0
146 0 3 1.7 12.841980403282497 0.4113238546796521 23.985393069555606 0 0 -1
147 0 3 1.7 8.821223438373204 4.481407275651913 6.641132701498133 0 0 0
148 0 3 1.7 12.807403879091202 0.44882626942041554 6.715665531713984 0 0 0
149 0 3 1.7 8.851881236638587 4.4942133932550075 12.451872623768914 0 0 0
150 0 3 1.7 12.913922430304408 16.715810359942942 12.556400843305783 0 -1 0
151 0 3 1.7 8.85704620040613 4.346472657788924 18.091552661877415 0 0 0
152 0 3 1.7 12.83277787542895 16.648094009267826 18.285589873140278 0 -1 0
153 0 3 1.7 8.879952617006007 12.670757618963172 0.9520828729555831 0 0 0
154 0 3 1.7 12.813024627746662 8.64715627553659 0.9726353105072331 0 0 0
155 0 3 1.7 8.879044102140139 12.7644444938692 6.63140027098102 0 0 0
156 0 3 1.7 12.913357342102866 8.643649290608979 6.703440708134312 0 0 0
157 0 3 1.7 8.840673549394475 12.710794753528132 12.513689648301314 0 0 0
158 0 3 1.7 12.813632798745969 8.5695426206182 12.514612002131761 0 0 0
159 0 3 1.7 8.91810138042049 12.579099367201115 18.28433668139677 0 0 0
160 0 3 1.7 12.878104169305612 8.489983925985316 18.261741991009863 0 0 0

Velocities

1 -0.001775614740858836 -2.570500551954553e-05 0.00023281136718774636
2 -0.0015192367172579431 -0.0003313483893397459 0.0013043839565220284
3 0.0004598300199313188 -0.0013197522306554366 -0.0005895039446759804
4 -0.00043533126249041277 -0.00026699031770720103 0.0005435115604009406
5 -0.0008419420742482105 0.0015641810315931422 0.0005653875495645603
6 4.123454040270366e-05 -0.000980154287592312 -0.0004410438651948664
7 0.0008903747825690976 0.000211722845203031 0.0023665092980215746
8 -0.0012288998250095551 -0.0008441086067492443 -0.0010692128358837198
9 -0.0005202335274444559 -0.001663235811723793 0.0006442646274478439
10 -0.00011594870893842082 0.0029065821513321686 -0.0012215404242925626
11 -0.0004911022326342817 -0.001056914841987684 0.0027496955030737818
12 0.00027616751040938854 -0.0006343785559480902 -0.0018203952656497162
13 0.0002294012571289036 -0.0012487656654378775 -0.001090258143365712
14 -0.0008613042448517746 0.000877216371366896 0.000673628341997012
15 -0.0005230693140228386 -0.0006294706384661196 -0.0017710769317870285
16 0.0012761365648807062 -0.002576174384742765 -0.0018390219515109923
17 -0.0012413119156166055 -0.001164393476797118 -3.6680364496330086e-05
18 0.0012495411239967589 7.491349442130097e-05 5.012365405909817e-05
19 -0.000963753128280343 -0.0015409620535709588 0.0009518892292927019
20 -8.654522135796801e-05 0.0016220498676207174 0.0018458367901415503
21 0.0009255056768273679 0.002155408295459593 -0.00029313519469505964
22 0.0005900913353407813 0.0017934258055850342 0.000767687843017135
23 0.00023371346199730332 0.0001654896839843722 0.000373933888103821
24 -1.186210785446173e-05 -0.002262584546182847 0.0002681126724325543
25 0.0006568505206057955 -0.002125202320573187 -0.0009544929165088563
26 0.0037897765237764175 -0.0013499372921203122 -0.0007764436985082171
27 0.00017785561612072772 0.0005180537996970747 -0.0012170604594568875
28 0.0002816061193653745 0.0004002461358241979 -0.0013447533943254698
29 -0.00032151263757230326 -0.0007200046311692077 -0.00044272229972123166
30 -0.0024297706477722065 -0.001075193933251621 0.001530712339785904
31 -0.0025039467661660962 -0.0003540107905891073 0.0020767669156686783
32 8.239594402094052e-05 -0.0010341566148632665 -1.5779290738853476e-05
33 0.00032157564921283876 -0.00047902776754495124 0.0004918762025103656
34 0.0021264259145182813 0.0007825372577218762 0.000434402784047032
35 0.00026228609152101904 0.00034357755957472593 0.00014388865088192488
36 0.0009973847151478715 -0.0007518866707868723 -0.0011038127131256306
37 -0.001577131237575264 0.0025210452253257684 -0.00022417161946169118
38 0.000438889766185562 0.002806963912520512 -0.0025054569527813574
39 -0.000613091412753853 0.001095386767025641 0.0004434414124675646
40 0.0006776501597186877 0.0005068027775210459 0.0030827114690347413
41 -0.0018337629127889905 -0.000609107037897626 -1.80317760925585e-05
42 0.0006943319833399139 6.185081980642146e-05 0.001095521619981843
43 -0.0007422468093983727 0.0002570290383318702 -0.0004271940732747754
44 -0.0007447738930647444 -0.0010538883896060625 0.0037326481919775886
45 -0.0012882001277247771 0.0015435869519440238 -6.948174694801513e-05
46 -0.001876670516173115 -0.0027163822255922565 -0.0013470415604902536
47 -0.002998767485333757 -0.0003367600125409676 -0.0005708442892845371
48 0.0016438051579685505 0.0011133199614389222 -2.7361818322874088e-05
49 -0.0012750579857999018 -0.00018209819933284646 -0.0017103597467523959
50 -5.4098210014113294e-05 0.0025515333434557932 -0.0008133814334692722
51 -0.0014863860388636494 9.435906862071368e-05 -0.000488124707717267
52 0.00033600176893624356 -0.002768465785462904 0.0004258080920681506
53 0.0003437507141770658 -0.0013687918479464054 0.0014601506948738162
54 -0.000529654032902783 0.0009232306133144768 -0.0009803216692112911
55 -5.404223437641947e-05 0.0009041599067500172 -0.0004992005931150194
56 0.002815840648305962 0.0005373333218008918 -0.0004867980006543621
57 0.0007812657217988827 0.0013226676615232954 -0.0019414579943651008
58 -0.0011912306111465686 -0.0028068448359129103 0.00199716813261879
59 -0.002303971984794406 0.0024882590290247033 -0.0009575243029125738
60 -0.00042005127908949035 -0.000854421707001417 0.0005692941737932303
61 0.00082544243555182 -0.0008430046487548047 -0.0013491269273069385
62 -0.0008578679086896047 -0.0007220981642608448 -0.0004927197416928069
63 0.0008360665968338514 -0.001080200987468392 -0.000851021824827165
64 0.0017719412886499158 -0.0002415534278325007 -0.0001252001980368218
65 -0.0012437076200014629 -0.0013277112436080973 0.002654600643200885
66 -0.0011111472876363787 0.00415080063065463 0.002309285567873206
67 -0.0007782328917267953 0.0007651942670133178 0.0018516232612012355
68 0.0007327448362458107 0.00012220612862041567 -0.0014418764135896666
69 0.000387477427863178 0.0024088998470321267 -0.0008845764699811088
70 0.0016344550521553475 0.0029330371744514575 -0.002654994222430135
71 0.0014071820188358741 -0.0010877982980545572 -0.0003802514568327394
72 0.0006562781145074549 -0.0027140291436955873 -6.807334151650359e-05
73 -0.00033634873061619226 0.0025773304554029867 -0.0005253702900714988
74 0.001624002435526223 -0.0010428939205580478 9.29090724573226e-05
75 -5.164109640132188e-05 0.0022682223995011755 0.0015957883876965436
76 -0.0013791031557610065 0.0012889803288544687 0.001996995351533143
77 -0.00017544813771481867 0.0015070804963738668 0.0016674704038557235
78 -0.0006123817153397877 -0.00038472606306444695 -0.0008395171670331647
79 0.0006203551463623841 0.002808994149986429 -0.0013044913848449422
80 0.001104184424931381 -0.0009394976225864578 -1.0107458442973548e-05
81 -0.00026495158270418545 -2.4918836694974634e-05 0.0012877093756178631
82 -0.0007405221559299513 0.0006808558548204096 -0.0012918869404709243
83 0.002052903162343513 0.001365107260025237 0.0003154071423734955
84 -9.210493752689805e-05 0.0003861563793466154 -0.0005525026189624472
85 -0.00036244476722352095 -0.00039223718340310475 -7.0247675183281645e-06
86 -0.0018230128395606059 -0.002684608481939899 -0.0010673026802010864
87 0.001192290050826108 -0.0008351932507420143 0.002846103942649419
88 9.686765040624693e-05 -0.0016428740073456875 -0.00078643390559641
89 0.0008872576903711268 -0.0017704955656959512 -0.0025013363911518226
90 0.00030775582635908576 0.001473600102876482 0.0014889152866426028
91 0.00017539024895447787 -0.0008080438414697878 -0.0020769181944012734
92 -0.0001470941457038604 0.00044799725128492435 -0.0019196678523841467
93 0.0007868883946007733 -0.0033159986631798822 -0.0007460506901101928
94 -0.002125775129925388 0.001750011202589898 0.0014024201109698361
95 -0.0011674583853110865 -0.0006089036835060884 0.00036190648120442375
96 -0.00033966563782198306 0.001784656466699995 0.0026280369333469104
97 -3.200698544775761e-05 0.00046845109807524404 -0.0004891402363224565
98 0.0006814471690376955 0.0017091556979328434 -0.001823161313057908
99 -0.0004714584122169731 -0.0022758943033354194 0.00013973386795157195
100 0.00019524400929882865 0.0024879149449508046 0.0008285510130369559
101 0.0006664733556896577 -0.0008923060682970719 0.0013323331371624405
102 0.0004681794664321393 0.00017398113889638796 -0.00045882739845854966
103 0.00013989463338742476 5.326300350930784e-05 -0.003060002395771143
104 -0.0013272458654730575 9.204106607319181e-05 -0.00021013995023424516
105 0.0001659222151623372 -0.0006873674404150085 -0.0017794406109214263
106 -0.0010981587630557823 -0.004944759533956967 0.0002733788620514235
107 -0.002234449997283663 -0.0030547714315704412 -0.0017709211907854596
108 -0.0006144345898783815 -0.0010571780390084095 -0.0001459309839443087
109 0.000167485948334249 0.00031475421291489507 -0.0005934116029921373
110 0.0017081354318638038 -0.0005926209134442099 0.001646806666588885
111 0.0009833100095218072 0.0019339065780053675 -0.003052092265230667
112 -0.0010360135238063537 -0.00039197892626116425 -0.0018917852110988426
113 -0.00040043284574937173 0.0013638239856659797 -0.0018152336538380185
114 -0.000774349797140411 -0.00024024579838367234 -0.001733517762751639
115 0.0009893107827200942 -0.00038958394863707985 0.0011724224206273043
116 -0.0006337071506591713 -0.0001235116660472677 -0.0014804657858124486
117 2.5139604285637538e-05 -0.0005918311657092202 0.0006035506181119517
118 -0.00013386098798072384 0.0023280597237739244 -0.0011523294973090298
119 0.0012036309111974359 -0.0025299946717215267 0.00127221220270092
120 0.00098067609640931 -0.0006378975125923253 0.0010186506102271202
121 -5.02871171739274e-06 -0.0016738506797435266 0.0003844312635228157
122 3.8045933142325616e-05 -0.002600756304478238 -2.3075154225787948e-05
123 -0.0016788737715258172 -0.0012341302416825782 0.00039438629667137577
124 0.0010219160542731941 0.0038154521451641884 0.0020659154401661884
125 0.0005584588338530409 -0.0005269820237137819 -0.0007243813389243363
126 -0.0007191551741423165 0.001242151011685475 0.0011266929696535967
127 0.0007159621418909095 -0.001071770451365019 0.001514275947427228
128 -0.00035563156621886685 -0.002267307611625807 -0.000367387080390116
129 0.00032651851203395536 -5.401477724339146e-05 -0.0006886439116539634
130 0.001180240603399212 -0.000805946207804958 0.0013292996173920294
131 0.0009690707057281981 -0.001135441758049772 2.2089477615067265e-05
132 -0.0003618136701163848 0.0012055425249807973 0.0012685353059602284
133 -0.0008464056952636057 0.0002745680972181498 -0.0007878988676652533
134 -0.0008575031171684711 0.0006581358327002966 -0.0016334149398253865
135 0.0014613013396708116 -0.0005231528414760503 -0.00045406607147303727
136 0.0012890812699100287 0.0012948496421648446 0.00036550701931820724
137 0.0005749382724357438 0.0006153041438172562 0.0012638172138937614
138 -0.0005528778392773886 0.001120692137576973 -0.0001696798486904921
139 -0.00041439732161491487 -0.0024729562887864085 0.0013088519434238765
140 -0.0003999656264930225 -0.00030697820877574546 -0.000621917092925383
141 -0.0016335710776423603 0.0010270289554222454 0.002293717749068929
142 0.002396097615605184 -0.00015599818678890484 -0.00042629276258589416
143 -0.0011566957664896336 0.0011308007078953684 0.001218596035191495
144 0.0015945962376271265 0.002544611610709433 0.0014240590070550552
145 0.0016614627549301944 3.895647558240049e-05 0.00019840426117881862
146 -0.0008427378229450988 0.0007028128479182989 0.000383457139145548
147 0.00011324806196267094 -0.0003879145704830225 -0.001904435317604316
148 0.0006048438491302694 -0.002292674341263196 -0.001115796688533119
149 -4.941824060175894e-05 0.0004339544408085612 0.0007172538515433893
150 0.0013030505953019293 -0.00036729727088875895 0.0017608250171737175
151 -0.0011426849869215173 0.0017446443588154765 0.0002263112483342182
152 0.00018576954895107168 0.00013262525095596137 -0.0016350529992556987
153 -4.788055631735036e-05 1.510991181900535e-05 -0.0004774210384027505
154 -0.0006530199640301813 0.000657987968129719 -0.000919234211405003
155 -0.0010230398712810453 0.0010151879591593655 -0.000326805922874105
156 -0.001951489929663882 -0.0008134098781860638 0.0007542043023268578
157 0.0014722712710020015 0.0026482618811895777 0.00010311150703027152
158 0.0005107718301290746 -0.00032455789731961147 8.342309456016099e-05
159 0.00047479135573515044 -0.0006561662259719355 0.00047761805909764005
160 0.0019049872296513152 -9.50111660030096e-05 -9.140609190001632e-05
