LAMMPS data file via write_data, version 23 Jun 2022, timestep = 10000

160 atoms
3 atom types

0.7703400326338943 16.9416599673661 xlo xhi
0.5727340057971927 16.579265994202807 ylo yhi
0.9640474157149649 23.97995258428504 zlo zhi
0 0 0 xy xz yz

Masses

1 132.904999
2 126.90447
3 204.199997

Pair Coeffs # lj/cut/coul/long

1 0.0898565 3.52101
2 0.0427844 5.04975
3 0.094278 4.043

Atoms # full

1 0 1 0.85 4.769369401336311 4.703749925774247 4.0081368164235505 0 0 0
2 0 1 0.85 4.972576235128946 4.301000908316598 9.695120278975565 0 0 0
3 0 1 0.85 0.9146144600550186 16.55472342003631 9.722630861172835 0 -1 0
4 0 1 0.85 8.542457351712843 8.581721575805346 3.9372641090666005 0 0 0
5 0 1 0.85 4.362797742841706 4.548841505562539 15.47598186876893 0 0 0
6 0 1 0.85 4.851609157017755 4.706450975714277 21.07911982916601 0 0 0
7 0 1 0.85 0.9195122726452767 0.6605528110130674 21.031103153865654 0 0 0
8 0 1 0.85 8.86827355652882 8.533649188776474 15.575382742406186 0 0 0
9 0 1 0.85 4.590000543572744 12.167808590983672 4.03550354315664 0 0 0
10 0 1 0.85 5.178184376962381 12.700479869417066 9.582297637160114 0 0 0
11 0 1 0.85 0.8887624111768765 8.767508044401643 9.556201052065964 0 0 0
12 0 1 0.85 8.498700652654948 0.832256511364129 4.028814345474183 0 1 0
13 0 1 0.85 4.6115061337158 12.480756695512207 15.257280512858998 0 0 0
14 0 1 0.85 5.075623356928433 12.665963050885816 21.110732489660965 0 0 0
15 0 1 0.85 0.9605407343686998 8.43839745218838 20.932436477190528 0 0 0
16 0 1 0.85 8.624322918772462 16.528356175303813 15.298887470747284 0 0 0
17 0 1 0.85 12.59104349628097 4.56079607049997 3.9140336597999887 0 0 0
18 0 1 0.85 13.139127952599631 4.658490046073099 9.5987073944684 0 0 0
19 0 1 0.85 9.171412474482892 16.4979435374599 9.563456290992155 0 -1 0
20 0 1 0.85 16.687620948410572 8.632519190689452 3.79680267463123 0 0 0
21 0 1 0.85 12.940026647965066 4.687429442221442 15.38732553999762 0 0 0
22 0 1 0.85 12.904383004660199 4.374514062972785 21.067383090092708 0 0 0
23 0 1 0.85 8.90478199733138 16.37076334208862 21.007685175893307 0 -1 0
24 0 1 0.85 16.605078247344295 8.682759004504078 15.246342326012924 0 0 0
25 0 1 0.85 12.60569522517072 12.549214550258121 3.887576853818684 0 0 0
26 0 1 0.85 13.171059925352619 12.790960619217818 9.481150608768486 0 0 0
27 0 1 0.85 9.2031551583855 8.355129582800988 9.606455806249071 0 0 0
28 0 1 0.85 16.771066100484475 16.401832313366214 3.7311649913288427 0 0 0
29 0 1 0.85 12.760516032577868 12.674223272978258 15.342673618514704 0 0 0
30 0 1 0.85 13.19252190037518 12.85385176730191 21.251405202382337 0 0 0
31 0 1 0.85 8.978821547920806 8.72864366529455 21.21308466295338 0 0 0
32 0 1 0.85 16.906586445461876 16.523086741575675 15.325911311059023 0 0 0
33 0 2 -0.85 0.7959845166687484 5.043594887396363 3.7836847379605514 0 0 0
34 0 2 -0.85 8.95986299828641 4.109826759796144 9.470731742136122 0 0 0
35 0 2 -0.85 4.883118819876847 0.9167117544353939 9.56205973866853 0 0 0
36 0 2 -0.85 5.095731116943898 8.129033774751765 3.872757469760056 0 0 0
37 0 2 -0.85 3.2075641812456794 6.195690152076851 12.089224050997336 0 0 0
38 0 2 -0.85 6.250635704990151 3.0996960382397667 1.3949131100746293 0 0 0
39 0 2 -0.85 2.2581170264397983 2.2250912371052998 1.0946201678628609 0 0 0
40 0 2 -0.85 7.24703940673683 6.881663191165769 11.99906859476578 0 0 0
41 0 2 -0.85 6.426002747666839 2.8304614834690054 6.404673819923466 0 0 0
42 0 2 -0.85 3.168976725689525 6.201726683513935 6.850772651917629 0 0 0
43 0 2 -0.85 7.145471714243378 6.755229203592579 7.152164975792362 0 0 0
44 0 2 -0.85 2.5032306617564193 2.2458507262145746 6.051014837801585 0 0 0
45 0 2 -0.85 16.87487317990833 5.073536002153446 15.264730760700225 -1 0 0
46 0 2 -0.85 8.769444218294224 4.095065752511567 21.195997801280566 0 0 0
47 0 2 -0.85 4.618232700194509 0.8800528396558495 21.110926604575315 0 0 0
48 0 2 -0.85 4.9468637606215236 7.8819179261577 15.274300981929015 0 0 0
49 0 2 -0.85 3.1409396795951112 6.1575224785673885 23.801075801280923 0 0 0
50 0 2 -0.85 6.405467774399248 3.0415672001432434 12.782129495502364 0 0 0
51 0 2 -0.85 2.5535923549373276 2.2062464856076995 12.785782475827796 0 0 0
52 0 2 -0.85 7.199019369271031 6.9009628562861725 23.511340936762114 0 0 0
53 0 2 -0.85 6.558906238709971 2.9031895840599375 17.837619073258445 0 0 0
54 0 2 -0.85 3.16018033809898 6.113716374583389 18.342727298100122 0 0 0
55 0 2 -0.85 7.211225176100964 6.967183378666686 18.615274409485405 0 0 0
56 0 2 -0.85 2.307221673092038 2.1870831241028634 17.69160111391203 0 0 0
57 0 2 -0.85 0.9875333118800823 12.95956072663493 3.8636074902070145 0 0 0
58 0 2 -0.85 9.058567003676888 12.322254763719624 9.687427715905976 0 0 0
59 0 2 -0.85 4.713744594902204 9.111734649876153 9.525185805077957 0 0 0
60 0 2 -0.85 4.965693517991852 16.086291019632416 3.866080678831287 0 0 0
61 0 2 -0.85 3.203815781304394 14.205856987114085 12.188170632121928 0 0 0
62 0 2 -0.85 6.376863866426131 10.931441106691596 1.2405499189515163 0 0 0
63 0 2 -0.85 2.3432822683471413 10.019045664714286 1.1277263121664116 0 0 0
64 0 2 -0.85 7.1980143233320195 14.762194284549777 12.27268378784369 0 0 0
65 0 2 -0.85 6.620347113609722 10.874850058565311 6.592922050866017 0 0 0
66 0 2 -0.85 3.014931435948416 14.389939082086137 6.965660309039809 0 0 0
67 0 2 -0.85 7.171446975623711 14.90348035292146 6.9454822022590506 0 0 0
68 0 2 -0.85 2.4090598463607966 10.261665426393455 6.444109695170741 0 0 0
69 0 2 -0.85 0.8491344480489994 13.077326729866142 15.330795059853553 0 0 0
70 0 2 -0.85 8.619677455944164 12.4161047293539 21.166966777309696 0 0 0
71 0 2 -0.85 4.699197064109153 8.826437375964835 21.047776309546823 0 0 0
72 0 2 -0.85 4.878869339459143 16.094305228946546 15.367564018767583 0 0 0
73 0 2 -0.85 3.2651582053064363 14.256625622821423 23.688156307232816 0 0 0
74 0 2 -0.85 6.544118017557462 10.78384508326718 12.664294559174046 0 0 0
75 0 2 -0.85 2.5132189869738477 10.20719877498897 12.886913746272905 0 0 0
76 0 2 -0.85 7.291597984922442 14.973689163283431 23.81894285675066 0 0 0
77 0 2 -0.85 6.45265554137701 10.95344258010181 17.836294999793388 0 0 0
78 0 2 -0.85 3.2207599230480963 13.981469026300358 18.429942634782115 0 0 0
79 0 2 -0.85 7.273888475640503 14.842528581556875 18.443009546098722 0 0 0
80 0 2 -0.85 2.453488221268336 10.062103682869354 17.641456641832338 0 0 0
81 0 2 -0.85 8.72518169189549 5.0884861148812925 3.9068091539856975 0 0 0
82 0 2 -0.85 0.9131136676965584 4.0193247019545355 9.566943230635413 1 0 0
83 0 2 -0.85 12.975038462093009 0.944076191526215 9.613693571480153 0 0 0
84 0 2 -0.85 13.066103349869818 8.495756803068188 3.8212578323295983 0 0 0
85 0 2 -0.85 11.25660737357897 6.004024797317776 12.347628668829945 0 0 0
86 0 2 -0.85 14.40529088705428 2.901970322578547 23.882783566433847 0 0 -1
87 0 2 -0.85 10.480041530197656 2.242681003388705 1.6178132856037222 0 0 0
88 0 2 -0.85 15.428561773516416 7.093929336384765 12.072666236287596 0 0 0
89 0 2 -0.85 14.713817182531415 2.980837431251559 6.638140937033484 0 0 0
90 0 2 -0.85 11.25375328308233 6.121496126698223 6.961222914296425 0 0 0
91 0 2 -0.85 15.444096758155512 7.00777123907754 7.086607553990979 0 0 0
92 0 2 -0.85 10.488387548466028 2.223815284401187 6.382492020340477 0 0 0
93 0 2 -0.85 8.85018848907754 5.067345507491158 15.446299659137832 0 0 0
94 0 2 -0.85 0.896770065825639 4.411664481202661 21.011583452384187 1 0 0
95 0 2 -0.85 12.65970292972577 0.8446746221189292 21.066129488620856 0 0 0
96 0 2 -0.85 12.982923466851531 8.242568848375974 15.397121272851098 0 0 0
97 0 2 -0.85 11.217100746242073 6.291541141550911 23.71135894538144 0 0 0
98 0 2 -0.85 14.564198228722887 3.087507047742554 12.742647878607542 0 0 0
99 0 2 -0.85 10.360621748797893 2.17624321042201 12.624009320620187 0 0 0
100 0 2 -0.85 15.125617859288807 6.94199248915289 23.65223108907486 0 0 0
101 0 2 -0.85 14.56915571202018 2.9010807319208918 18.23991027777759 0 0 0
102 0 2 -0.85 11.254338977888633 6.190897275801909 18.681624364243618 0 0 0
103 0 2 -0.85 15.163716186335392 6.936453069736056 18.542381050902158 0 0 0
104 0 2 -0.85 10.488412982987821 2.2754704193785864 18.0313811296282 0 0 0
105 0 2 -0.85 8.840047416593984 12.95543053809227 3.9060162972950265 0 0 0
106 0 2 -0.85 16.938057497406902 12.328550907489172 9.628794076801547 0 0 0
107 0 2 -0.85 12.90410093305945 8.966249221569988 9.544734792426953 0 0 0
108 0 2 -0.85 13.143771563422506 16.256887125981702 3.844923645048091 0 0 0
109 0 2 -0.85 11.19881714435002 14.313665277296222 12.31870104843018 0 0 0
110 0 2 -0.85 14.585093912766839 11.029679070650838 1.3669369102305655 0 0 0
111 0 2 -0.85 10.327963371357637 10.016288520855532 1.3311882740244436 0 0 0
112 0 2 -0.85 15.374904917983502 15.113461996432092 12.307875056330671 0 0 0
113 0 2 -0.85 14.508545504825106 11.005258822813593 6.603372043704191 0 0 0
114 0 2 -0.85 11.272687814255281 14.21044835462956 6.88973024728363 0 0 0
115 0 2 -0.85 15.28152653152998 15.027254922030258 7.022713226328285 0 0 0
116 0 2 -0.85 10.381603864241365 10.110956207614022 6.555164637386712 0 0 0
117 0 2 -0.85 9.088182599320556 12.836339348277082 15.464716370193926 0 0 0
118 0 2 -0.85 16.825319395641657 12.291436087566622 21.103397490283573 0 0 0
119 0 2 -0.85 12.784707934044187 9.220552940654883 21.064009673828778 0 0 0
120 0 2 -0.85 12.98187784033501 16.197230973942226 15.288028610217754 0 0 0
121 0 2 -0.85 11.218612809194694 14.092878630359522 23.836160499613825 0 0 0
122 0 2 -0.85 14.662117165270624 10.994093937123829 12.846930264386897 0 0 0
123 0 2 -0.85 10.602040380941062 10.149881675693555 12.805099893227533 0 0 0
124 0 2 -0.85 15.270064883067345 14.926999123175372 23.64318090293065 0 0 0
125 0 2 -0.85 14.484977344231408 10.991556689121827 17.754880645510276 0 0 0
126 0 2 -0.85 11.136203484393285 14.208115853283136 18.462390166504573 0 0 0
127 0 2 -0.85 15.350673973479218 14.788390779626212 18.64907726087149 0 0 0
128 0 2 -0.85 10.448543148947353 10.148065060287141 17.98255492861163 0 0 0
129 0 3 1.7 16.782607255359736 4.609638252984969 23.84528958492327 -1 0 -1
130 0 3 1.7 4.858149052140481 0.6661847876315105 23.97201664805724 0 0 -1
131 0 3 1.7 0.8457738981298552 4.546307943411691 6.692862264296411 0 0 0
132 0 3 1.7 4.837968634629025 16.562090214666764 6.688483101808655 0 -1 0
133 0 3 1.7 0.8473924318639902 4.698447920771916 12.485724209043804 0 0 0
134 0 3 1.7 4.919735939551541 16.458903695971838 12.406111156255479 0 -1 0
135 0 3 1.7 16.806132978640072 4.621418419379964 18.16897171470366 -1 0 0
136 0 3 1.7 4.798948664600457 16.541229785653535 18.19375279884932 0 -1 0
137 0 3 1.7 16.898349300582908 12.57619663529383 23.95012030334989 -1 0 -1
138 0 3 1.7 4.854790966372356 8.54362063345802 23.921370924283487 0 0 -1
139 0 3 1.7 16.84171006489193 12.574774968289539 6.631881994072797 -1 0 0
140 0 3 1.7 4.858220038969007 8.56182356978663 6.760186432745546 0 0 0
141 0 3 1.7 0.8110238498452679 12.580868559601592 12.518098972553238 0 0 0
142 0 3 1.7 4.890486225922208 8.563236576666919 12.387538386146524 0 0 0
143 0 3 1.7 0.8226890109588804 12.455133911836876 18.154740766212644 0 0 0
144 0 3 1.7 4.856157575806343 8.60023368278896 18.110001896471907 0 0 0
145 0 3 1.7 8.81573772581377 4.568672659776113 1.0208339624256384 0 0 0
146 0 3 1.7 12.73609320413226 16.575119827168848 1.0214492956501864 0 -1 0
147 0 3 1.7 8.817332848078772 4.561314684042313 6.657133772124752 0 0 0
148 0 3 1.7 12.964659237305193 0.5945178330432335 6.670162450640483 0 0 0
149 0 3 1.7 8.799139992987683 4.588703327812021 12.373805487419455 0 0 0
150 0 3 1.7 12.812618114823064 0.6751195008029529 12.50141898754325 0 0 0
151 0 3 1.7 8.840678026003264 4.645664687379376 18.383495098061765 0 0 0
152 0 3 1.7 12.910220943578532 0.6477702557384123 18.1710429280099 0 0 0
153 0 3 1.7 8.730307737502082 12.433255702794552 0.9646580427165115 0 0 0
154 0 3 1.7 12.840270168211353 8.76945490652168 23.932463308464587 0 0 -1
155 0 3 1.7 8.889386211397996 12.561775940373465 6.831629735141679 0 0 0
156 0 3 1.7 12.79528050073744 8.534826001518844 6.719739211028476 0 0 0
157 0 3 1.7 8.97272587767638 12.450319432978214 12.577113695438106 0 0 0
158 0 3 1.7 12.972775201738404 8.638575889449124 12.422469899262062 0 0 0
159 0 3 1.7 8.841934346903372 12.555788474412433 18.298122603875022 0 0 0
160 0 3 1.7 12.836752117931725 8.599108894227241 18.318816436391103 0 0 0

Velocities

1 -0.0005068472314413441 -0.0007226699684223375 0.0017997505202871837
2 0.0005529483580473407 0.001286739332237274 -0.00025215812776003003
3 0.0006531510768961129 -6.562668652149589e-07 0.0011042177178577507
4 0.0011835263231271518 -0.0005026909219409162 0.001764968173860111
5 0.0005885189259657744 0.0003188947095873369 0.000930494304699138
6 -0.0008371743698713392 0.00037785182829379945 0.00016546203000808224
7 0.0004264289621364133 -0.0026685011555213642 -0.0007344185173338429
8 0.0019379813600571814 -0.002162175206530068 0.001138885851827374
9 -0.000781017585349856 0.0015886949208259173 -0.00269650857109324
10 0.00017808915661331472 0.001432433306473585 -0.0011358787982693173
11 -0.001583322827634158 0.0010177687813373486 0.001486571522496951
12 -0.001557455849448989 0.0019663434123791735 -0.0012643058242605102
13 -0.00033171834591785463 -0.0017512774864942714 0.0002556443016980181
14 -0.00013121288315031933 0.0011049316082657563 -0.0007034788915898718
15 -0.001537612863536257 -0.00039754507841738296 0.001198185887884738
16 0.0006598569958952909 0.0014716101589324927 -0.002100932031612982
17 0.0007961484374008347 0.0011646383750823425 -0.00023262367037171628
18 0.000856271607887799 -0.0002082020026021045 0.001237990486745434
19 -0.0019843616928679423 0.0001340522743736637 -0.0001500571865936771
20 -0.001973519128765414 -0.0012684822195584802 0.0012825499703419448
21 -0.0002216648739970766 0.00022677452892067652 0.001124186324205053
22 0.0007715613193480966 -0.0018409287774477383 0.0007117842921366815
23 -0.0004045517955515056 -0.0001340393630506864 0.0008159154857095648
24 -0.0016802223449593622 -0.00037383069352531304 -0.0005999882365835935
25 0.001094665997848165 0.0005311968475019943 -0.0013631530067877086
26 -0.0002808198279814734 0.0007946862869885469 0.0002359646731331692
27 -0.0013986430953012432 -0.0010034095969029921 0.00021974486993723704
28 -0.0007311785371070037 -0.0006345909715616358 0.00032116858576996675
29 0.0002184102538690525 0.0015868011668588675 -0.0002495649098496622
30 0.002763123275901858 0.0005063907749639985 -0.0004413250821052309
31 -0.0009709257348712665 0.0001609955904611576 -0.0006836167418230467
32 0.0005314058435046645 -0.0018607237390008986 -0.00023730394989851473
33 0.0015283190492976764 -0.001908677139722587 -6.245262396281901e-05
34 0.0003188937767169464 0.0005057909201006667 0.0010847853785192197
35 -0.0011952181618475025 -0.0005586025471531209 -0.0004998527697557866
36 -0.0028864461426885324 -0.0010113313666464438 0.0004661868978719195
37 -0.0019097544655667887 -0.0013018548419488016 -0.0005151533091511248
38 0.00017365359319253693 0.0013026476563672545 -0.002335139123491053
39 -0.0005002475043775826 0.0021043025479879863 0.001236925678534667
40 -0.0012540668428087025 -9.983309047503802e-05 0.00017212445373960308
41 0.001598610886657604 -0.001038134337912973 0.0019710662781317148
42 0.0009982653018882326 -0.0008088453895180947 -0.0007867954574511793
43 -0.0010890896323203438 0.0008661125728646115 0.0003088121158484904
44 0.0009398774042418789 0.0002962974099023589 -0.00018321310819715823
45 -0.0026486330275440565 0.0021222798010101136 0.0016380743050602874
46 -1.8728964356599222e-05 0.0005346942432048148 -0.0005487491777127437
47 -0.0015540159073983244 0.0010588377553383008 -7.581343103956277e-05
48 0.0004697650873216323 -0.001815923327437382 -0.001406925470863656
49 -0.0005638877285547829 -0.0013370063571831038 -0.0002617355730134293
50 0.00034609445319357227 2.0985287818751484e-05 -0.004496540473721889
51 -0.0020539015289340024 0.002448765162163502 0.0014490202521507945
52 0.0012465444250235546 -0.0006009880049712698 -6.620315835812437e-06
53 0.003608353970282752 0.001794656845272333 0.0006854979992691444
54 1.8952366173957188e-05 0.00020056210573009901 -0.00012574658420415457
55 0.001109577001480989 0.002651773992676264 0.002289050086937132
56 0.0016117980763789082 -0.0017805808490891028 -0.003346796786773241
57 -0.00036063969348759645 -0.0033980198468929997 -5.324776238301132e-05
58 0.00028152810617969505 -0.003071453566544697 -0.0009233681861385671
59 -0.00040147312587438124 0.0010786345989848983 0.001741596451170452
60 0.0005523223757826574 -0.0006365537226338807 -0.0015111808906109058
61 0.0006860184976551828 0.002345332834754975 -0.0014624231253359925
62 -0.0002511767013868014 -0.002629894871656373 -0.0001038260689873098
63 0.00023604496256824937 0.001154305412210203 -0.0028413511891636004
64 0.0010164718556580127 1.585664850861417e-05 0.0004910210695562519
65 -0.0015877384168149528 -0.002107417597272672 0.0004630831785232199
66 -0.0006540223034690852 -0.0016066365269104882 0.0004449299088103966
67 -0.0005473563224501007 -0.0006618233544259316 -0.0006159687878495204
68 0.00018779505973719283 -0.00046941613056726106 0.0015534784829263264
69 0.0015260858956226671 0.00018858176493516163 0.002373794801485315
70 0.0009069398298244819 -6.574020848827165e-06 -0.002709465404016608
71 0.000574153735797408 -0.0001444393259253521 0.001145881284190462
72 0.0010156140227899596 0.0015039318637917033 0.002998569081129815
73 0.0009113468728571598 0.003219237508107938 -0.002086595708396182
74 1.6668911140195116e-05 0.0011445522069051112 -0.0009491667783566401
75 0.0005853205064128206 -0.002542193012384518 0.0011029054947407396
76 0.0011429482623388245 -0.0012655868225350299 0.0010871894046941297
77 -0.00036133600835086977 -0.001103296165390771 0.0002777707636755811
78 0.0016074537220461373 -0.0006115533121254045 -0.0033244614579470227
79 -0.0018790732887313758 0.0021696547854088547 0.00041963138002349743
80 0.0017395235639705326 0.0024313279569501633 0.0008097511758511596
81 -0.0002785973699532044 0.002111927533532523 0.0006990364253049551
82 -0.002303437423718873 0.001316185287911039 0.00016231073408641862
83 0.000877865254517364 -0.0008912699208924704 0.0018440193946696048
84 -0.00246437707793268 -0.0020270519084907364 0.002888830819633743
85 -0.0018221091645282412 0.0005028756604366063 0.000856230144276524
86 -0.0022521927147033678 -0.001013957228602581 0.0006378511280477582
87 -0.0011826293026546933 0.00027476204771887156 0.0013187699854197146
88 -0.00032577358117176047 -0.00017145427970659857 -0.0002628680211216626
89 0.002198987738647763 -0.0028671185211489266 -0.0003723927205990672
90 0.002155049253558145 0.0006243808447942338 0.00011396184219544353
91 0.00011701461340119162 0.0002999354228841077 -0.0014799985043904885
92 -0.0011012297011817138 -0.0009916493463105998 -0.0004424326768465242
93 0.0006254254389907544 -9.537194990070197e-05 -0.00040449259872175165
94 0.001701128954802914 0.000528718809277986 0.0025753756015530877
95 -0.0002796748672867194 0.00011490890642488333 0.0003415464440212123
96 0.0007637922569976042 -8.14946217115654e-05 0.001161827057889452
97 -0.0007932352485769899 0.0029065579694181024 -0.00047356780722130476
98 -0.0003989926620272832 -0.001333209171717009 -0.0003484777337932848
99 -0.002611355878922016 0.0008992441056797044 0.0009267267942732545
100 -0.0015359231967847766 -0.0005638094493070481 -0.0034681309738515457
101 -0.0003053149045886636 -0.0006022016390242825 -0.0009822074916019114
102 0.0008267537372251419 -0.0010548698208971761 0.001012820345025511
103 -0.00034672834556266266 0.0019244597413341608 -0.0010611640286483442
104 -0.0016745268676874835 -0.0011373779057380986 4.670612310258575e-05
105 -0.0004890299615060737 -0.0007246004043323721 0.001163368365394409
106 0.0016646284502869282 -0.0030247121796049005 0.00018067836689087262
107 -0.0007759160004466426 -0.0004995424082262579 0.000936889523231672
108 0.001458853286198675 0.00046879185393055244 -0.0012784825859468313
109 0.0032860540613880392 0.0022660020681832217 -0.0006882380406206164
110 -0.001672402649305216 -0.0002924898610108964 0.0014625495509486427
111 0.00037451526535856164 -0.0010262829392146012 0.0008585944313972226
112 0.0017464125595911166 -0.0008464140172085231 0.0018108585087287432
113 -0.0015324085780391195 -0.0009405183502519644 0.00013897974418129435
114 -0.0013575517759407936 -0.0008502825072271912 -0.0020234521648575476
115 0.0038516533075604827 0.0018901375063265237 -0.00043297434138453347
116 0.0003610127291556513 -3.3966377297115276e-05 -0.0012495283079257938
117 -0.0009861639099680792 0.0005511155232331126 -0.0021143118103255174
118 1.2349607238488073e-05 0.0008741221197237428 -0.0014450597324957102
119 -0.0002572038088352619 0.0012342393735662938 0.00024364154892446936
120 0.0007581736774272451 0.0020953697458762407 -0.0008465632404214108
121 -7.629457033986408e-05 0.001094877841214851 0.00011421963720170354
122 0.001667426175449786 -0.00043963267794345373 -0.0007560408128233669
123 -0.0009595404056215481 0.0007719147432277196 0.0009353458558612097
124 0.0024717404449304176 -2.0974619605975986e-06 0.0013292655273841232
125 0.00020115495034505321 -0.0001955298922856732 5.104498816220169e-05
126 0.001530532290146994 -0.0005207687635652345 -0.002306845451381365
127 -0.000550425287916363 -0.0011417104381345584 0.0006006813622368761
128 -6.413797226793055e-07 -0.0031638906810586486 0.0012311660558263994
129 0.0011585098637405804 -0.0012453180954034627 0.0010702684100999096
130 -4.3226571486720315e-05 0.0011904678893869198 -0.0003245518837573125
131 -0.00018499470094568605 0.0013934614041167567 0.0017835149998628632
132 -0.0018236588687180182 2.304232401361597e-06 0.00035205719719432144
133 0.0010239486254625678 4.591361334244558e-06 0.0009954080031148694
134 -2.95910825486869e-05 -0.0005565557337245857 0.000787436861398149
135 0.0010251442092918718 -0.0017424174753961931 -0.0019195052914150943
136 -0.0008171018859885849 0.0007280349809382868 -0.001762249950943868
137 0.00047867230888987784 0.0008484637843379631 -0.0006260590781363428
138 0.0003232687846774381 0.001817115662932101 -0.000185731877904627
139 0.0005387985987899435 -0.00041529210369697364 0.0009389550788894925
140 -0.002065117839638952 -0.0008687285832210373 -0.0012999729149809995
141 0.0009595108183416454 -0.001882904447367632 -0.001720010268010115
142 -0.00012861975609271457 -0.0008465887264010596 -0.00032761363654783504
143 0.0012081750849733935 0.0004885912127639225 -0.00019402986180712132
144 -0.0016445186945732747 0.0005263956333931464 0.0009811174115115838
145 -0.0012235707021980326 -0.002197848979374 0.00044428715544794165
146 -0.0009900182579316542 0.001547683754958092 -0.00039342524651094624
147 0.0009729565431105326 -0.0006021592956072283 -0.0015738704492384763
148 0.0002914303103127886 0.002654667052622574 0.00032099900662119993
149 0.002693578466461558 -0.00011639957642690781 -0.00024504923867166805
150 -1.6421878163100188e-05 0.002604473898081457 2.0157524712702108e-05
151 -0.0009224048309535326 0.000629703642920502 -0.00022672550299329908
152 -0.0002925048399379559 0.00013833684135178327 -1.5306767466946936e-05
153 -0.0008979934793653574 -2.031936472059816e-05 -0.0009231608132685114
154 -0.0014795946950646505 0.0013513438578156797 0.0004919360657621598
155 0.0005271532831860502 -0.00013725761076747775 0.0006433866063660405
156 -0.000531533704649303 0.0003591394112470522 -0.00040882106312798295
157 0.0004909760338607872 -0.0016450275946001734 0.0023462445176496904
158 -0.00018466120296493926 0.00046914879560045885 2.0262803301362156e-05
159 0.000747283807750441 -0.0008531390951737042 0.0007583641590324524
160 -0.00020785939132394852 -0.0005212640378589003 -0.000598942605122696
