LAMMPS data file via write_data, version 23 Jun 2022, timestep = 0

160 atoms
3 atom types

-0.2757395952069294 21.144139595206997 xlo xhi
0.4468315022727278 18.715168497727266 ylo yhi
0.21900406548412435 17.541995934515885 zlo zhi
-0.042085552359216655 0.010974863395007105 -0.3650615130207737 xy xz yz

Masses

1 132.904999
2 126.90447
3 204.199997

Pair Coeffs # lj/cut/coul/long

1 0.0898565 3.52101
2 0.0427844 5.04975
3 0.00518862 4.043

Atoms # full

1 0 1 0.85 4.140752001864521 1.304301674293857 12.010690442690036 0 0 0
2 0 1 0.85 1.116482961712901 3.878792920445553 3.4719010699089714 0 0 0
3 0 1 0.85 5.77541739262825 3.908095320202189 5.443236957691943 0 0 0
4 0 1 0.85 9.85276631350491 1.2256172831687695 14.10114432915076 0 0 0
5 0 1 0.85 4.298232805304671 5.988446320655724 12.004834076479646 0 0 0
6 0 1 0.85 0.4579980033462836 8.16128901947799 3.8831964736200297 0 0 0
7 0 1 0.85 6.4862794281144955 8.471227915056064 5.377725033154918 0 0 0
8 0 1 0.85 9.66871759739153 6.026731080102366 13.968539295676672 0 0 0
9 0 1 0.85 4.340037188473438 10.460809209424403 12.545249541744067 0 0 0
10 0 1 0.85 0.6737497802633201 12.95984551405129 3.5403362166132815 0 0 0
11 0 1 0.85 6.051334053366888 12.754838202526482 5.355886268155883 0 0 0
12 0 1 0.85 9.702351931404005 10.50502423061398 14.223595910192106 0 0 0
13 0 1 0.85 4.800944758741131 15.060913469110346 12.354950025617875 0 0 0
14 0 1 0.85 0.42110355160242263 17.436895412429458 3.642871250002583 0 0 0
15 0 1 0.85 5.950366535729026 17.85221631900291 5.2555017833318844 0 0 0
16 0 1 0.85 9.839712654111107 14.816494840126426 14.438078581855812 0 0 0
17 0 1 0.85 15.223745122033579 1.1566005951801783 11.886367663527045 0 0 0
18 0 1 0.85 11.379790573619482 3.788083054179912 3.533496297547797 0 0 0
19 0 1 0.85 16.724380278748573 3.8806073146227043 5.223019059221277 0 0 0
20 0 1 0.85 20.0916134537439 1.0688668251186775 14.076310803917817 0 0 0
21 0 1 0.85 14.679959329853542 6.223368305820827 12.121861207314545 0 0 0
22 0 1 0.85 11.38382466715423 8.5421562211869 3.6094770089096997 0 0 0
23 0 1 0.85 16.65197668052946 8.259602327390033 5.375193514416264 0 0 0
24 0 1 0.85 20.24506385148156 5.715902724184376 13.795375028841086 0 0 0
25 0 1 0.85 14.947890248859004 10.520774876248792 12.69490553725163 0 0 0
26 0 1 0.85 11.23304752749373 13.248167838197546 3.461050384614518 0 0 0
27 0 1 0.85 16.726652038990586 12.682440602619701 5.457263802953553 0 0 0
28 0 1 0.85 20.346163971011517 10.397235334235047 14.059485134609353 0 0 0
29 0 1 0.85 14.698198072742567 15.02999774430482 12.187061986558195 0 0 0
30 0 1 0.85 11.183491897989827 17.56567819315311 3.6566626823993795 0 0 0
31 0 1 0.85 16.30704301088954 17.5537172469691 5.6599976567275085 0 0 0
32 0 1 0.85 20.287219832537662 15.200204103231309 13.986948986927574 0 0 0
33 0 2 -0.83 1.8399669672453358 1.7525427021413935 0.7137948893365588 0 0 0
34 0 2 -0.83 3.1993324995708323 3.5271263097303174 9.281535116217105 0 0 0
35 0 2 -0.83 8.108824947706765 3.617301704274394 17.00476483255753 0 0 0
36 0 2 -0.83 7.159199599505369 1.171612452885919 8.453274423353212 0 0 0
37 0 2 -0.83 2.8019470355431646 1.2312150479254667 5.476998710671522 0 0 0
38 0 2 -0.83 1.466007910957827 3.5475207590296876 14.206256920574784 0 0 0
39 0 2 -0.83 6.9917597554629545 3.69424687216012 12.0575544770374 0 0 0
40 0 2 -0.83 8.360502399423371 1.623266135886119 3.160600079864974 0 0 0
41 0 2 -0.83 21.134755641697847 1.2578181593697728 10.327542643644374 -1 0 0
42 0 2 -0.83 4.651653495537349 4.100910318003738 1.8647734935214586 0 0 0
43 0 2 -0.83 10.340647587473676 3.7635981005682964 7.288544902632245 0 0 0
44 0 2 -0.83 5.088129008613363 1.2025141535330297 15.982638006759291 0 0 0
45 0 2 -0.83 1.3631414477008659 6.381847959482901 0.6388200674507918 0 0 0
46 0 2 -0.83 3.341047534878623 8.13976051215415 9.49923848766195 0 0 0
47 0 2 -0.83 8.383737044242638 7.97356495913788 16.950113746521968 0 0 0
48 0 2 -0.83 7.060744353812077 6.11719776317866 8.580059472293927 0 0 0
49 0 2 -0.83 2.850404012722372 6.121814252817702 5.691941701915912 0 0 0
50 0 2 -0.83 1.7720568138697557 8.135814053859727 14.560548282042834 0 0 0
51 0 2 -0.83 7.4708975771737105 8.119349906870841 12.256005461218507 0 0 0
52 0 2 -0.83 7.997479571386947 5.967328364573052 3.4072633245297226 0 0 0
53 0 2 -0.83 -0.016040077101545744 5.8614542321675795 10.393500509683667 0 0 0
54 0 2 -0.83 4.948413758353684 8.553204776525693 2.0037667580111576 0 0 0
55 0 2 -0.83 10.37100328922912 8.219780792251834 7.251871368921758 0 0 0
56 0 2 -0.83 4.796421384809011 5.973230723747464 16.096980966095238 0 0 0
57 0 2 -0.83 1.6485525976385496 10.861968816844632 0.7983291327090968 0 0 0
58 0 2 -0.83 3.3950710159829907 12.634817879023208 9.555719190327801 0 0 0
59 0 2 -0.83 8.34356245112119 12.605858521951678 17.02047716690247 0 0 0
60 0 2 -0.83 6.991063975182246 10.340577535600644 8.521996119893966 0 0 0
61 0 2 -0.83 3.3535003763908304 10.582911044854134 5.694918351834277 0 0 0
62 0 2 -0.83 2.1212383439334785 12.721444795412756 14.21792125104035 0 0 0
63 0 2 -0.83 7.279489660124937 12.723988520751272 12.093499239636534 0 0 0
64 0 2 -0.83 8.31082562930156 10.657678681326393 3.191687926272718 0 0 0
65 0 2 -0.83 -0.18656964477751328 10.474273808116246 10.581129991833208 0 0 0
66 0 2 -0.83 4.888415627327665 13.175615185533742 1.7831562779202856 0 0 0
67 0 2 -0.83 10.27273172146344 12.4556274301376 7.212616658125822 0 0 0
68 0 2 -0.83 4.9659237061297965 10.556381874741154 16.018166566330986 0 0 0
69 0 2 -0.83 1.511765406437452 15.51798667450106 0.7549970556036365 0 0 0
70 0 2 -0.83 3.093113220930467 17.40718884791455 9.24543080478089 0 0 0
71 0 2 -0.83 8.525359325853064 17.18476009298719 17.060766690934926 0 0 0
72 0 2 -0.83 7.090364219691181 15.11610692450792 8.53354587962526 0 0 0
73 0 2 -0.83 3.2448144207056884 15.021956886098586 5.776234246860386 0 0 0
74 0 2 -0.83 1.6694404504443112 17.579686586310142 14.19960418394931 0 0 0
75 0 2 -0.83 7.218045654384077 17.50675537009001 12.311157242055705 0 0 0
76 0 2 -0.83 8.198309270709201 15.174027161223652 3.51640133988946 0 0 0
77 0 2 -0.83 -0.2611628434798555 14.945017220336817 10.518713497785347 0 0 0
78 0 2 -0.83 5.289801590163668 17.751316333342288 2.0512088895602725 0 0 0
79 0 2 -0.83 10.40237313292813 17.417107216008453 7.57502303985696 0 0 0
80 0 2 -0.83 4.789771514277979 15.23234298162541 15.934376809126187 0 0 0
81 0 2 -0.83 12.729225208809904 1.5434455194554555 0.7065013155426243 0 0 0
82 0 2 -0.83 13.58262537908343 3.6918262386477974 9.258493421481807 0 0 0
83 0 2 -0.83 19.16947774217108 3.284001739347973 16.93436364985201 0 0 0
84 0 2 -0.83 17.981565624956733 1.3644644040588725 8.312084789203146 0 0 0
85 0 2 -0.83 13.453391741146234 1.6587617737032865 5.73202113912612 0 0 0
86 0 2 -0.83 12.362955051323702 3.715861593140736 14.547969228234232 0 0 0
87 0 2 -0.83 18.043444288812186 3.736986146950662 12.144866955779053 0 0 0
88 0 2 -0.83 19.065874847990084 1.3216878671047971 3.35508630621807 0 0 0
89 0 2 -0.83 10.261230603378172 1.5994245637847733 10.661094609987819 0 0 0
90 0 2 -0.83 16.020038608246963 3.7558569363951158 1.7475149057315214 0 0 0
91 0 2 -0.83 -0.2161207969395035 3.659295126156855 7.217031022392656 1 0 0
92 0 2 -0.83 15.887851694027885 1.4482501974394895 15.781524669900044 0 0 0
93 0 2 -0.83 12.317587672763386 5.9377823334673865 0.9937035662902697 0 0 0
94 0 2 -0.83 13.570419310982443 8.07405243153738 9.70565967272392 0 0 0
95 0 2 -0.83 18.913741048994634 7.874056782401161 16.90480695480931 0 0 0
96 0 2 -0.83 17.764363146433134 6.254223679543031 8.218817739339862 0 0 0
97 0 2 -0.83 13.691360323905128 6.162532454644764 5.8370998706112704 0 0 0
98 0 2 -0.83 12.52124387562369 7.940848703093942 14.38807854159954 0 0 0
99 0 2 -0.83 17.715284994750018 8.329929842232659 11.773736136285805 0 0 0
100 0 2 -0.83 19.136125598668105 5.9228968673896505 3.2939856730062393 0 0 0
101 0 2 -0.83 10.306592176434812 5.890218253035197 10.462073003166203 0 0 0
102 0 2 -0.83 15.60514842993668 8.579442521438672 1.9317426841168504 0 0 0
103 0 2 -0.83 0.03395334375072549 8.377379349565249 7.497908002035368 1 0 0
104 0 2 -0.83 15.494542391837228 5.78978444755717 16.01984041779953 0 0 0
105 0 2 -0.83 12.461072329703187 10.739967131452358 0.7358759213523064 0 0 0
106 0 2 -0.83 13.632421140978288 12.871406465734124 9.227683455076997 0 0 0
107 0 2 -0.83 19.14739754235107 12.287991936040843 17.265739216889838 0 0 0
108 0 2 -0.83 17.886565985112437 10.694099657733073 8.232910086370667 0 0 0
109 0 2 -0.83 13.865215827188589 10.34980706373918 5.913684728508917 0 0 0
110 0 2 -0.83 12.434554772731909 12.69244774150076 14.716284767252834 0 0 0
111 0 2 -0.83 17.77732045353495 12.724916614079534 11.687633568410291 0 0 0
112 0 2 -0.83 18.96373270631593 10.382780934363916 3.3904883590497277 0 0 0
113 0 2 -0.83 10.279723456213947 10.46587191720794 10.574949137361841 0 0 0
114 0 2 -0.83 15.747288964920001 13.118281563675563 1.8684063626268446 0 0 0
115 0 2 -0.83 0.12939513695335025 12.631966176145779 7.339995328466822 1 0 0
116 0 2 -0.83 15.769046972039904 10.418353665023863 16.23744661809865 0 0 0
117 0 2 -0.83 12.32716790001155 15.275988624852891 0.7969350951777651 0 0 0
118 0 2 -0.83 13.73754359086145 17.484133347879624 9.520393404868567 0 0 0
119 0 2 -0.83 18.99819410461618 17.050022572720938 17.010438872248454 0 0 0
120 0 2 -0.83 17.83494565161295 15.055372782949702 8.136526269723555 0 0 0
121 0 2 -0.83 13.316628999701743 15.569767641638842 5.74039268264888 0 0 0
122 0 2 -0.83 12.646085990920241 17.07742262512436 14.457791446495916 0 0 0
123 0 2 -0.83 17.834058958396373 16.957156103375358 11.91096725378374 0 0 0
124 0 2 -0.83 18.927945745249808 15.1268683450336 3.3147990739308693 0 0 0
125 0 2 -0.83 10.377801195039162 14.876429429905446 10.372161836715115 0 0 0
126 0 2 -0.83 15.842452953459654 17.52681939588324 1.8117897777527658 0 0 0
127 0 2 -0.83 -0.16660588252926334 17.16338346726292 7.388164993322773 1 0 0
128 0 2 -0.83 15.628210648707965 14.700114921234125 15.842974783111531 0 0 0
129 0 3 1.64 1.669464412061454 1.225008641406616 8.0669718432715 0 0 0
130 0 3 1.64 2.8519498153156815 3.8287803428341567 16.76713364940506 0 0 0
131 0 3 1.64 8.4433771321761 3.7632142496788177 9.694617773780823 0 0 0
132 0 3 1.64 6.995951697194496 1.645527033575056 0.7665689899092435 0 0 0
133 0 3 1.64 1.7011532128826867 6.039100897508909 8.190612701931459 0 0 0
134 0 3 1.64 3.041803200711299 8.28577744774193 16.960566346812925 0 0 0
135 0 3 1.64 8.4212703688076 8.400266245352764 9.654983471505815 0 0 0
136 0 3 1.64 6.855682124635694 6.174716606138134 0.8662112845265599 0 0 0
137 0 3 1.64 1.8732523093800975 10.464289574158302 8.320297292069656 0 0 0
138 0 3 1.64 3.0039045768181185 12.830847053660632 16.93884638014678 0 0 0
139 0 3 1.64 8.496015854341023 12.626049472727395 9.616851413476125 0 0 0
140 0 3 1.64 6.971312158793321 10.64123813571929 0.7403873443527575 0 0 0
141 0 3 1.64 2.0891038126556247 14.977806767934014 8.286817292889863 0 0 0
142 0 3 1.64 2.9247861287057866 17.290740761575574 16.77598743241491 0 0 0
143 0 3 1.64 8.338374939661906 17.2916972503152 9.783162916187377 0 0 0
144 0 3 1.64 6.928504350394863 15.532414516123811 1.000099757821468 0 0 0
145 0 3 1.64 12.043361092356934 1.565050546068879 8.232022997929269 0 0 0
146 0 3 1.64 13.950929081981965 3.599102289684642 16.853695113096553 0 0 0
147 0 3 1.64 19.245702426462902 3.505540852626807 9.540483348174487 0 0 0
148 0 3 1.64 17.786805364439015 1.4258766606808746 0.9606792204300477 0 0 0
149 0 3 1.64 12.168741179608112 5.910352229890809 8.115190265623111 0 0 0
150 0 3 1.64 13.88919820512401 8.18526057525594 16.988372250545076 0 0 0
151 0 3 1.64 19.15922687458243 8.550678497269654 9.362249641125478 0 0 0
152 0 3 1.64 17.79237574910589 5.928638714410293 0.8741590250279092 0 0 0
153 0 3 1.64 12.383733470349972 10.483024453960677 8.352958077448063 0 0 0
154 0 3 1.64 13.903137477336328 12.588862996674992 17.0724731677363 0 0 0
155 0 3 1.64 19.234362344646957 12.846934516264865 9.297180709169826 0 0 0
156 0 3 1.64 17.75232945542177 10.533947561136271 0.9240337330831823 0 0 0
157 0 3 1.64 12.147012899040101 15.205897643468392 8.141792592460845 0 0 0
158 0 3 1.64 13.852706331181803 17.16172400662454 16.87507374853974 0 0 0
159 0 3 1.64 19.13024931962612 17.305216895652894 9.499719303664035 0 0 0
160 0 3 1.64 17.7819057632507 15.225200623727448 0.7510846832554915 0 0 0

Velocities

1 0.00022510194896320824 0.0015462350754215884 0.0010053704558625827
2 0.0013336834032649531 -0.0007000540228031681 -0.0018105977126332876
3 -0.002026361298824297 -0.0014919813115512328 1.1087462975609816e-05
4 -0.0007059833140574814 -0.0012132162950449213 0.00299758875932981
5 -0.002322482008591469 -0.0003317329095333864 0.0020874966123497923
6 0.0008609879863273677 0.0004968959177163146 5.123932597390865e-05
7 0.0002658511438379159 0.001161343730120067 0.00021407630917338332
8 0.0015113437485369814 -0.0018664630266975492 -0.00010082604902332952
9 0.0015870806243191665 0.0007772058469927796 0.0015580422475662047
10 -4.4665226519908516e-05 0.0031630456125467006 -0.0027294832726537928
11 -0.00014436946653599255 -0.0035818635425325083 -0.0017101665617702659
12 -0.0011952891803257701 -0.0002893999763147444 0.001230401876869665
13 -0.0009989497964947897 -0.000596964843052834 0.00035840513750679345
14 0.00057635295875875 0.00032135997169680945 -0.0007154004731580366
15 -0.002460197392282677 0.001093130425624517 2.6695604953177167e-05
16 0.0012473828982813683 -0.0010682367826732042 -0.0006489789769815357
17 0.001350127326928195 -0.0016877908524494125 -0.000302084744199291
18 0.0012998200906293965 0.0005284779254445753 -0.00047966408738415523
19 -0.0015716936017582085 -0.002146765914011477 0.0011921052685905564
20 0.0003363212482721874 0.0017052177850410243 0.00010855668399333952
21 -0.0024855278838832665 -0.0006222900011913243 0.0005983834923496147
22 -0.0021186554241894692 0.0006718668741068645 -0.00011343453386477387
23 0.00019893962777240554 -0.0005802321857776762 -0.0014723927531931555
24 0.0010370421165258603 0.0017557199709825222 -0.001027756274293648
25 0.0011509430006299644 -0.0014743847164199163 -0.000291441153235661
26 0.0013044166051996934 -0.0002778360719231301 -0.001148171761970423
27 -0.0032637779767182035 -0.0008196548109174716 0.0008625258952397422
28 0.0006604727537667478 0.0008612883016478312 -0.0004632033924897427
29 -0.00010321265841974077 0.0003523542569083264 -0.002689927077628494
30 0.00016167970175919909 -0.00027820836665917655 -0.0014607706798103214
31 -0.0011575789180825625 -0.00011806793976177618 -0.0023891241435457867
32 0.00044793299272780936 0.00016979697159160242 -0.0008291534654518576
33 0.0022732485870088385 0.00028427935134026864 -0.0007799489491831833
34 -0.0007914792376493592 0.0014517031507533054 -0.0007579124233116518
35 -0.0008703224090658307 0.0004328826713596034 0.00026802286835572297
36 -0.0020849366552488087 -0.00026735340266192964 0.0037501770402220357
37 0.001890151504410269 -0.0004910617655844977 -0.002469095011911807
38 0.0012148552799108516 -0.0012889702938126352 -0.00016224440955033107
39 0.000582534589663255 -0.0003463123708230819 -0.0004473230403633019
40 -0.00021662510090646425 -3.475801120676074e-05 0.00020466431277602797
41 9.492728735301878e-06 -0.0005175380474406853 0.0016833401097282761
42 -0.0026736332771909745 0.0017705864316590828 -0.00016559486636235428
43 -0.0011833822141365826 0.0008727070323655859 0.002136254373399474
44 -0.0018868031843675126 0.0005849691665105488 -0.0017892886557275747
45 0.0005326667298132528 0.0005714554286859706 0.0016353602536354067
46 0.0034480987450740764 -0.0010215408304042758 0.001713133546895567
47 0.0022125310014930975 -0.002135551853652149 0.0007528218555717834
48 -0.0023483617528767126 -0.0005222962182157672 -0.0009365690839819508
49 0.0006589830214746284 0.0006712273333625126 -0.0014173760860463273
50 -0.0013342517901216873 -0.001912229378858134 -0.0017293040446863443
51 -0.00082972186935865 0.0004127682879191676 0.0019364109559041188
52 -0.0009830038150847964 -0.0003252379830268632 0.0018143595943734083
53 -0.0018300673594178949 0.001212443024237035 0.0011237550183276959
54 0.0021399362795065506 0.0004189311489780133 -0.00028802325213555786
55 0.0009705848216898288 0.0022344336072842455 -0.0008029994112786287
56 0.0006070982704958452 -0.0007792764547489438 -0.000850095512169386
57 -0.0014786990228879287 -0.001387892823537192 -0.0016040525547952051
58 0.0009155338698377958 -0.0002548827229455013 3.689739279645532e-05
59 -0.0017811690323558855 -0.0007985243732147042 0.0005189439850746234
60 0.0013005732518180748 1.8488902204086294e-05 -0.001506686669381997
61 -0.00013876811172700576 -0.0014696725798868152 0.0009508915630180467
62 -0.0017933934238482752 0.000505564761014772 0.0004085333229375909
63 0.0004019662322476916 -0.0009335048512355537 0.0002715876291984565
64 0.000836583357551154 0.0021584879620780008 0.0032507364696199234
65 -0.0020065524730029844 0.0005302335553933389 -0.0007991765517339036
66 0.0012220877902463132 -0.0003679695618031923 -0.0008666768823527815
67 -0.0023509011696509173 0.000555079486025636 -0.000950166595254043
68 0.00012127057728131505 -0.0024706672480977305 0.0030660067452217723
69 0.0010422019687611297 -0.00020236550667603715 0.00026472051494846356
70 0.0009537434172905561 -0.0027310316566533334 -0.0027730774843132415
71 0.0009666021123615759 -0.001407927622662374 -0.0021631921625674005
72 0.00085855254696728 0.0011743973923066255 -0.0006376021288383625
73 -0.0007940679076854363 0.0006987589684742334 0.0006897833218048806
74 0.002600486299100266 -0.0007754596264905091 -0.001199287892499111
75 4.898761886849048e-05 -0.00014945934139915814 0.0014856306851663567
76 0.0020792417502203016 -9.966468688783395e-05 -0.0021338408711863307
77 0.00012870794266765643 0.001301210349376173 -0.0007122322957221762
78 0.00019113313687998523 0.002481647838459032 0.00022522862832868282
79 0.0014322599373072405 0.0011274227212030381 0.0006095676507690858
80 0.001225789725865535 -0.0011507861272742326 -0.001651952221058786
81 -0.0005846393634379377 0.0007805991732963685 0.0020835975021670327
82 -0.0008246016619254746 0.0019801389849317262 -0.0009130191380896279
83 -0.0005295108688979079 0.0015925253382145785 -0.0017371468845457888
84 -0.0014177555161826426 0.00023153013893769674 0.0007665026775820549
85 0.00018091219732661341 -0.0011520311927996625 -0.0008412446088122575
86 2.678801336157677e-05 -0.0002653306763198241 0.0021600096226004027
87 -0.0020617309722184185 -0.001366697651056829 0.0012585664457465666
88 -0.001868629553125934 0.0014450028915575248 -0.00034553909457516705
89 -0.0015188993956030514 -0.0020116524860406054 0.001988588727725265
90 0.0015043325513529476 0.002038467696531873 -0.000430763488345498
91 -0.0007764511789811616 0.002099805794132679 -0.0003741643068352482
92 0.0010783124727904367 -0.0004125921652000269 -0.0013129795153197748
93 0.0006370750757298599 0.001382627698388494 0.0002959341672589358
94 -0.002924626826703787 -0.0003052659227436251 -0.0017700167664875715
95 0.002502829652929959 0.0011507773176580459 -0.00018153104433481094
96 0.002217955560504643 0.00107146837320624 -5.216905117428539e-05
97 0.0020779794422313004 0.0013573006143813454 -0.00020389753696606295
98 0.0002904685840317999 0.00010830187305783059 -0.00106524172820867
99 -0.0009196270761815346 -0.00036268800516368134 -0.0007650203145409309
100 0.0012511599886576923 0.0027039578684293912 0.0019081096613162765
101 0.0026939270975252774 -0.0012156954744671875 0.0012733443562256525
102 0.0013038984995731224 -0.0031560328281342366 0.000328501231345338
103 0.00046414064651450186 0.00157155231328727 -0.0024568586162671026
104 0.00012458377385422047 0.0028406799933739643 -0.0038677539047541356
105 -0.00026925908244091476 0.0031344776541592503 -0.0005882461765582812
106 -0.0004835074774174051 -0.001022023039155545 -0.0008893908864130421
107 0.001828916784030435 -9.63630858863744e-05 -0.0020526496074386473
108 -0.0015848636558372954 -0.0013823532610358462 0.00024320275965279044
109 -0.0027055089707855675 -0.0014143230959076313 0.0003004073364856569
110 -0.002235831298263579 -0.002070446465339453 0.0021306869386298983
111 0.0016975238352883873 -2.271036514856953e-05 0.0004360743754579237
112 -0.0007722394157357087 0.0019124872316746374 0.0017275722222082211
113 -0.00038660576388320446 0.0005677089791071381 -0.002755560955861393
114 0.0008022217100707737 -0.00034251916160680043 0.0018527083865848466
115 -0.0012380290422811544 -0.00011604763615704801 -0.0013090046310666012
116 -0.0012011687688978506 0.0015528233542107962 -0.000354071564981718
117 0.0003502818706831169 9.627530036117541e-05 -0.0004519988153986906
118 -0.0009178738645674863 -0.0007858985507834909 -0.0023674175763020474
119 -1.1576907713684833e-05 -0.0007279973126989027 0.0002862806712846111
120 0.003314433986647807 -0.0025353587875573368 0.0011728132389504909
121 0.0028621510457967087 0.00038128797134394203 0.001652318905059039
122 0.0013724036597735584 -0.00030694820656719713 -0.0003818047135589145
123 -0.0012009302652892227 0.00032849804212569246 -0.0008306470344402192
124 0.0006171740982886095 -0.0011190469746961624 0.003874024475491867
125 -3.958319924633109e-05 0.001965174990301512 0.00039220385736255377
126 0.0008714496071804453 -0.0011997228112862414 0.0003533639837071046
127 0.00028545537443528437 0.0003837313583959838 0.0007270668090323808
128 0.00030320891483130176 0.001254405696051824 0.0024496677349846695
129 0.00012244004185431873 -0.001362259043363981 0.00013565431614482673
130 -0.0004140207370226147 -0.0007143210526873552 0.0009453310242622857
131 0.0003938788556165835 0.0012685842269361243 -0.000429480092244662
132 -0.00018555650223246736 0.00012223535255870903 0.0002718356709523595
133 -0.0010987377798432649 0.0015062331055937137 0.001446484307209452
134 -0.0009647045982022281 -0.0005728918397008116 0.0003502507081657223
135 -0.00030585279157416674 -8.636937563898563e-05 -0.0006233113042405685
136 0.0002612768846708634 -0.0001375442624611856 -0.0006138134797272246
137 -0.00040930733127763784 -0.0003693745037205756 0.0010095934949297353
138 -0.0004109860223735495 0.0003405646455601763 0.0018479873496945484
139 -0.000673446454466267 -0.00018195651003312434 0.0005752857374632258
140 -0.0008880368660836319 -0.0008472722744900231 1.1150708139592393e-05
141 -0.0006012943983845882 0.0008679400226006462 -0.00010784347714559952
142 -0.0005369223288485941 0.0003428767635460125 0.0008046135616152542
143 -0.0007881072064818917 4.526928443608096e-05 0.00031220116990670347
144 0.001240507487462168 -0.0001506799810752191 -0.0017525875729005771
145 -0.0019205439839747407 0.0009362317725081345 0.00035102813066136907
146 0.001707948591948766 -0.0006085022427484639 0.0018132738656423443
147 0.000986655779664604 0.000842283712901684 -0.0006413726580874077
148 -0.0012447957603357411 -0.0006568025745067597 -1.3192151530707487e-05
149 0.00041029892462799545 0.00034424191053771636 -0.0022979439260942215
150 0.0009608136168115876 -0.0010458895867529673 0.0008396523207373802
151 -0.0008244277872671001 -0.0003247241814673969 -0.001369153179518506
152 6.527112799253376e-05 -0.0009529310396646788 -0.001311100458093499
153 -0.0015873322580351112 -0.000403874644538919 -0.0018033507836789683
154 0.0014687037775428968 -0.0009543965480573539 0.00045871053589801165
155 0.0017371831404087523 -0.00037059184002895154 0.00029022160634565973
156 0.0005337046755646964 0.001083216895457488 0.0002120640513613842
157 -0.00038208368915397447 0.000288871809710228 0.0010843590922388962
158 -0.0017168299791120928 0.0002597354366453015 0.0012097229560005364
159 0.0009848697945820646 0.001368156840524235 0.0009803544900680522
160 0.0013485832729266214 -0.001997561408408445 0.0009206163218019744
