LAMMPS data file via write_data, version 23 Jun 2022, timestep = 8

160 atoms
3 atom types

0.6318778227158277 20.236522177284172 xlo xhi
0.23913011992998523 18.922869880070014 ylo yhi
0.7104400000000001 17.050559999999994 zlo zhi
0 0 0 xy xz yz

Masses

1 132.904999
2 126.90447
3 204.199997

Pair Coeffs # lj/cut/coul/long

1 0.0898565 3.52101
2 0.0427844 5.04975
3 0.00518862 4.043

Atoms # full

1 0 1 0.85 4.706131263953268 1.4068639917214603 11.673080010494822 0 0 0
2 0 1 0.85 1.4587856548240088 3.742331188154108 3.5030200526959407 0 0 0
3 0 1 0.85 6.359946731233925 3.742331188182864 6.087919963647412 0 0 0
4 0 1 0.85 9.607292364865737 1.4068639916964474 14.257980005990325 0 0 0
5 0 1 0.85 4.706131263945938 6.0777989317618815 11.67308001049559 0 0 0
6 0 1 0.85 1.4587856548252884 8.41326612819747 3.5030200527038504 0 0 0
7 0 1 0.85 6.3599467312328475 8.41326612823015 6.087919963648046 0 0 0
8 0 1 0.85 9.60729236486645 6.07779893173565 14.257980005988088 0 0 0
9 0 1 0.85 4.70613126394138 10.748733871803683 11.673080010495202 0 0 0
10 0 1 0.85 1.4587856548255194 13.08420106823917 3.5030200527040747 0 0 0
11 0 1 0.85 6.359946731233012 13.084201068275934 6.08791996364577 0 0 0
12 0 1 0.85 9.60729236486494 10.748733871779033 14.257980005989799 0 0 0
13 0 1 0.85 4.706131263953423 15.41966881183874 11.673080010495307 0 0 0
14 0 1 0.85 1.4587856548284728 17.755136008263328 3.503020052693411 0 0 0
15 0 1 0.85 6.359946731235141 17.75513600829599 6.087919963645176 0 0 0
16 0 1 0.85 9.607292364861383 15.419668811819374 14.257980005990214 0 0 0
17 0 1 0.85 14.508453268771847 1.4068639916943881 11.673080036349461 0 0 0
18 0 1 0.85 11.261107635110072 3.742331188177827 3.5030199940151774 0 0 0
19 0 1 0.85 16.16226873605367 3.742331188155495 6.087919989508107 0 0 0
20 0 1 0.85 19.409614345169615 1.406863991731285 14.257979947304781 0 0 0
21 0 1 0.85 14.508453268773625 6.077798931727958 11.673080036349146 0 0 0
22 0 1 0.85 11.261107635104809 8.413266128223983 3.5030199940166993 0 0 0
23 0 1 0.85 16.162268736062206 8.413266128200245 6.087919989509482 0 0 0
24 0 1 0.85 19.409614345175875 6.077798931766189 14.257979947300006 0 0 0
25 0 1 0.85 14.508453268771449 10.748733871775071 11.673080036347773 0 0 0
26 0 1 0.85 11.261107635103482 13.084201068270533 3.5030199940186026 0 0 0
27 0 1 0.85 16.162268736059755 13.084201068245843 6.087919989509143 0 0 0
28 0 1 0.85 19.409614345179428 10.748733871805461 14.25797994729937 0 0 0
29 0 1 0.85 14.508453268770184 15.419668811817766 11.67308003634915 0 0 0
30 0 1 0.85 11.261107635107491 17.75513600829717 3.5030199940149176 0 0 0
31 0 1 0.85 16.16226873605394 17.75513600827228 6.087919989509483 0 0 0
32 0 1 0.85 19.409614345175537 15.419668811842987 14.25797994730224 0 0 0
33 0 2 -0.83 2.2330169870195378 1.406863983232099 0.7362531725460093 0 0 0
34 0 2 -0.83 3.9318998502567224 3.7423311966452437 8.906313161805762 0 0 0
35 0 2 -0.83 8.833060972673476 3.7423311966269206 17.024746799951707 0 0 0
36 0 2 -0.83 7.1341780400796555 1.4068639832883412 8.854686792768238 0 0 0
37 0 2 -0.83 3.5632970172241794 1.406863880827734 5.405566851725168 0 0 0
38 0 2 -0.83 2.6016197191208725 3.742331299062116 13.575626833980023 0 0 0
39 0 2 -0.83 7.502780893791682 3.7423312991429434 12.355433141359288 0 0 0
40 0 2 -0.83 8.464458019650086 1.4068638807772373 4.185373124520819 0 0 0
41 0 2 -0.83 0.9438974429973815 1.4068638575900925 10.74976288297749 0 0 0
42 0 2 -0.83 5.221019233998174 3.7423313223270345 2.5797029176908572 0 0 0
43 0 2 -0.83 10.122180474123859 3.742331322392514 7.011237136237568 0 0 0
44 0 2 -0.83 5.845058383929005 1.4068638575981196 15.181297171328863 0 0 0
45 0 2 -0.83 2.2330169870202843 6.07779892326375 0.7362531725503705 0 0 0
46 0 2 -0.83 3.931899850266082 8.41326613667456 8.906313161801927 0 0 0
47 0 2 -0.83 8.833060972675034 8.413266136654535 17.02474679994913 0 0 0
48 0 2 -0.83 7.134178040083324 6.07779892331732 8.85468679276522 0 0 0
49 0 2 -0.83 3.56329701723233 6.077798820857915 5.4055668517252515 0 0 0
50 0 2 -0.83 2.601619719121078 8.413266239096867 13.575626833984025 0 0 0
51 0 2 -0.83 7.502780893788181 8.413266239173733 12.355433141356972 0 0 0
52 0 2 -0.83 8.464458019650378 6.077798820807608 4.1853731245236885 0 0 0
53 0 2 -0.83 0.9438974429971664 6.077798797620653 10.749762882976999 0 0 0
54 0 2 -0.83 5.2210192340033785 8.413266262350756 2.5797029176892172 0 0 0
55 0 2 -0.83 10.122180474123203 8.413266262420695 7.011237136240506 0 0 0
56 0 2 -0.83 5.845058383927624 6.07779879762562 15.181297171330055 0 0 0
57 0 2 -0.83 2.233016987016557 10.748733863289655 0.7362531725487723 0 0 0
58 0 2 -0.83 3.9318998502626856 13.084201076703692 8.906313161807445 0 0 0
59 0 2 -0.83 8.833060972681626 13.08420107667879 17.024746799949117 0 0 0
60 0 2 -0.83 7.134178040087832 10.74873386334091 8.854686792765106 0 0 0
61 0 2 -0.83 3.563297017236379 10.748733760881972 5.405566851720621 0 0 0
62 0 2 -0.83 2.6016197191181893 13.084201179125493 13.575626833983303 0 0 0
63 0 2 -0.83 7.502780893799284 13.084201179194466 12.355433141360564 0 0 0
64 0 2 -0.83 8.464458019653476 10.74873376082934 4.1853731245172625 0 0 0
65 0 2 -0.83 0.9438974429927309 10.748733737656254 10.749762882975539 0 0 0
66 0 2 -0.83 5.221019233999105 13.084201202376235 2.579702917682963 0 0 0
67 0 2 -0.83 10.122180474128951 13.084201202444735 7.011237136241573 0 0 0
68 0 2 -0.83 5.845058383927897 10.74873373765195 15.181297171336286 0 0 0
69 0 2 -0.83 2.233016987015073 15.419668803324388 0.7362531725457749 0 0 0
70 0 2 -0.83 3.9318998502452747 17.75513601675203 8.906313161808113 0 0 0
71 0 2 -0.83 8.83306097267826 17.75513601672718 17.02474679994865 0 0 0
72 0 2 -0.83 7.134178040089377 15.419668803372879 8.854686792766532 0 0 0
73 0 2 -0.83 3.5632970172277876 15.419668700921038 5.405566851725521 0 0 0
74 0 2 -0.83 2.6016197191141837 17.755136119171745 13.575626833981561 0 0 0
75 0 2 -0.83 7.502780893795526 17.755136119246156 12.355433141359441 0 0 0
76 0 2 -0.83 8.464458019655776 15.41966870086352 4.1853731245184775 0 0 0
77 0 2 -0.83 0.9438974429912242 15.419668677694904 10.749762882978953 0 0 0
78 0 2 -0.83 5.22101923399854 17.755136142424654 2.579702917693393 0 0 0
79 0 2 -0.83 10.122180474130532 17.75513614249212 7.011237136240103 0 0 0
80 0 2 -0.83 5.845058383928736 15.41966867768419 15.18129717133093 0 0 0
81 0 2 -0.83 12.035339027369021 1.4068639832811562 0.7362532000680293 0 0 0
82 0 2 -0.83 13.734221959924989 3.7423311966295256 8.906313207223556 0 0 0
83 0 2 -0.83 18.635383013017904 3.7423311966781894 17.02474682748348 0 0 0
84 0 2 -0.83 16.93650014975668 1.40686398325944 8.854686838178047 0 0 0
85 0 2 -0.83 13.36561910620838 1.4068638807642087 5.4055668586389665 0 0 0
86 0 2 -0.83 12.403941980362884 3.7423312991366995 13.575626875489135 0 0 0
87 0 2 -0.83 17.30510298277264 3.7423312990806044 12.355433148266004 0 0 0
88 0 2 -0.83 18.266780280885044 1.4068638808394245 4.185373166012417 0 0 0
89 0 2 -0.83 10.746219525889927 1.4068638575178505 10.749762863723845 0 0 0
90 0 2 -0.83 15.023341616061845 3.7423313223211854 2.5797028287632564 0 0 0
91 0 2 -0.83 19.924502557012925 3.7423313223054886 7.011237116982086 0 0 0
92 0 2 -0.83 15.64738076597762 1.4068638575839096 15.181297082311954 0 0 0
93 0 2 -0.83 12.035339027371018 6.0777989233191 0.736253200072025 0 0 0
94 0 2 -0.83 13.73422195991885 8.413266136654254 8.906313207222286 0 0 0
95 0 2 -0.83 18.635383013004166 8.413266136706625 17.02474682748686 0 0 0
96 0 2 -0.83 16.936500149737636 6.077798923293967 8.854686838176518 0 0 0
97 0 2 -0.83 13.365619106210033 6.077798820803435 5.405566858635766 0 0 0
98 0 2 -0.83 12.403941980368199 8.41326623916589 13.5756268754926 0 0 0
99 0 2 -0.83 17.305102982762033 8.413266239114073 12.355433148269434 0 0 0
100 0 2 -0.83 18.266780280876464 6.077798820873574 4.185373166008386 0 0 0
101 0 2 -0.83 10.746219525890858 6.077798797548795 10.74976286372049 0 0 0
102 0 2 -0.83 15.02334161606042 8.413266262344676 2.5797028287606527 0 0 0
103 0 2 -0.83 19.924502557011785 8.413266262340839 7.011237116979368 0 0 0
104 0 2 -0.83 15.64738076597439 6.07779879762111 15.18129708231156 0 0 0
105 0 2 -0.83 12.035339027373563 10.748733863340393 0.7362532000700999 0 0 0
106 0 2 -0.83 13.734221959924069 13.084201076677342 8.90631320722433 0 0 0
107 0 2 -0.83 18.635383013008532 13.084201076732882 17.02474682748057 0 0 0
108 0 2 -0.83 16.93650014973782 10.748733863319192 8.854686838177305 0 0 0
109 0 2 -0.83 13.365619106210469 10.748733760821512 5.405566858636092 0 0 0
110 0 2 -0.83 12.40394198036699 13.084201179187644 13.575626875490709 0 0 0
111 0 2 -0.83 17.305102982766044 13.084201179136855 12.355433148269588 0 0 0
112 0 2 -0.83 18.266780280874464 10.748733760897736 4.185373166001623 0 0 0
113 0 2 -0.83 10.746219525889295 10.748733737576453 10.749762863723744 0 0 0
114 0 2 -0.83 15.023341616059842 13.084201202367991 2.5797028287603596 0 0 0
115 0 2 -0.83 19.92450255700961 13.084201202371771 7.01123711698029 0 0 0
116 0 2 -0.83 15.647380765975349 10.748733737644658 15.181297082314835 0 0 0
117 0 2 -0.83 12.03533902737409 15.419668803371602 0.7362532000700108 0 0 0
118 0 2 -0.83 13.73422195992012 17.75513601671933 8.906313207223763 0 0 0
119 0 2 -0.83 18.635383013018966 17.755136016772806 17.024746827477276 0 0 0
120 0 2 -0.83 16.936500149746497 15.419668803351374 8.854686838179495 0 0 0
121 0 2 -0.83 13.365619106210573 15.419668700853856 5.405566858634044 0 0 0
122 0 2 -0.83 12.403941980364777 17.75513611923199 13.575626875487298 0 0 0
123 0 2 -0.83 17.305102982777125 17.75513611918019 12.355433148268068 0 0 0
124 0 2 -0.83 18.26678028087895 15.419668700932844 4.1853731660084135 0 0 0
125 0 2 -0.83 10.74621952589 15.41966867760717 10.74976286372279 0 0 0
126 0 2 -0.83 15.023341616059907 17.75513614240638 2.579702828768737 0 0 0
127 0 2 -0.83 19.92450255700993 17.755136142420156 7.011237116988029 0 0 0
128 0 2 -0.83 15.647380765977415 15.419668677671796 15.181297082316295 0 0 0
129 0 3 1.64 2.2048176345122252 1.4068640173999731 7.8664637935798805 0 0 0
130 0 3 1.64 3.960099144364246 3.7423311624989335 16.036523810294682 0 0 0
131 0 3 1.64 8.861259949765444 3.742331162496312 9.894536104537112 0 0 0
132 0 3 1.64 7.105979022876082 1.4068640174475986 1.7244761274772995 0 0 0
133 0 3 1.64 2.2048176345003165 6.077798957445237 7.8664637935923345 0 0 0
134 0 3 1.64 3.9600991443622147 8.413266102546642 16.036523810288415 0 0 0
135 0 3 1.64 8.861259949769659 8.41326610253697 9.89453610453388 0 0 0
136 0 3 1.64 7.105979022887796 6.077798957495658 1.724476127472478 0 0 0
137 0 3 1.64 2.2048176344973833 10.748733897489386 7.86646379358542 0 0 0
138 0 3 1.64 3.9600991443656133 13.084201042599897 16.03652381029346 0 0 0
139 0 3 1.64 8.861259949773261 13.084201042599727 9.894536104537966 0 0 0
140 0 3 1.64 7.1059790228944 10.748733897553453 1.7244761274749827 0 0 0
141 0 3 1.64 2.2048176345022155 15.419668837508825 7.866463793581357 0 0 0
142 0 3 1.64 3.9600991443795177 17.755135982608362 16.036523810291566 0 0 0
143 0 3 1.64 8.861259949751794 17.755135982602447 9.894536104535703 0 0 0
144 0 3 1.64 7.105979022897673 15.419668837593008 1.7244761274725353 0 0 0
145 0 3 1.64 12.00714005023351 1.406864017376201 7.86646389545636 0 0 0
146 0 3 1.64 13.762420977122385 3.7423311624019444 16.036523872515247 0 0 0
147 0 3 1.64 18.66358236552436 3.7423311624885542 9.894536206423084 0 0 0
148 0 3 1.64 16.908300855714607 1.406864017373406 1.7244761896615697 0 0 0
149 0 3 1.64 12.00714005022623 6.077798957409281 7.86646389546402 0 0 0
150 0 3 1.64 13.762420977113004 8.413266102453921 16.0365238724996 0 0 0
151 0 3 1.64 18.663582365559602 8.413266102517714 9.894536206417486 0 0 0
152 0 3 1.64 16.908300855727795 6.07779895740214 1.7244761896619938 0 0 0
153 0 3 1.64 12.007140050225452 10.748733897470306 7.866463895447036 0 0 0
154 0 3 1.64 13.762420977110619 13.08420104251552 16.03652387250434 0 0 0
155 0 3 1.64 18.663582365557467 13.084201042569585 9.89453620641065 0 0 0
156 0 3 1.64 16.908300855737302 10.748733897462461 1.7244761896684881 0 0 0
157 0 3 1.64 12.007140050225846 15.419668837507892 7.866463895455145 0 0 0
158 0 3 1.64 13.762420977119714 17.755135982539297 16.036523872505605 0 0 0
159 0 3 1.64 18.66358236552146 17.755135982580885 9.894536206425204 0 0 0
160 0 3 1.64 16.908300855731706 15.419668837508226 1.724476189673846 0 0 0

Velocities

1 0 0 0
2 0 0 0
3 0 0 0
4 0 0 0
5 0 0 0
6 0 0 0
7 0 0 0
8 0 0 0
9 0 0 0
10 0 0 0
11 0 0 0
12 0 0 0
13 0 0 0
14 0 0 0
15 0 0 0
16 0 0 0
17 0 0 0
18 0 0 0
19 0 0 0
20 0 0 0
21 0 0 0
22 0 0 0
23 0 0 0
24 0 0 0
25 0 0 0
26 0 0 0
27 0 0 0
28 0 0 0
29 0 0 0
30 0 0 0
31 0 0 0
32 0 0 0
33 0 0 0
34 0 0 0
35 0 0 0
36 0 0 0
37 0 0 0
38 0 0 0
39 0 0 0
40 0 0 0
41 0 0 0
42 0 0 0
43 0 0 0
44 0 0 0
45 0 0 0
46 0 0 0
47 0 0 0
48 0 0 0
49 0 0 0
50 0 0 0
51 0 0 0
52 0 0 0
53 0 0 0
54 0 0 0
55 0 0 0
56 0 0 0
57 0 0 0
58 0 0 0
59 0 0 0
60 0 0 0
61 0 0 0
62 0 0 0
63 0 0 0
64 0 0 0
65 0 0 0
66 0 0 0
67 0 0 0
68 0 0 0
69 0 0 0
70 0 0 0
71 0 0 0
72 0 0 0
73 0 0 0
74 0 0 0
75 0 0 0
76 0 0 0
77 0 0 0
78 0 0 0
79 0 0 0
80 0 0 0
81 0 0 0
82 0 0 0
83 0 0 0
84 0 0 0
85 0 0 0
86 0 0 0
87 0 0 0
88 0 0 0
89 0 0 0
90 0 0 0
91 0 0 0
92 0 0 0
93 0 0 0
94 0 0 0
95 0 0 0
96 0 0 0
97 0 0 0
98 0 0 0
99 0 0 0
100 0 0 0
101 0 0 0
102 0 0 0
103 0 0 0
104 0 0 0
105 0 0 0
106 0 0 0
107 0 0 0
108 0 0 0
109 0 0 0
110 0 0 0
111 0 0 0
112 0 0 0
113 0 0 0
114 0 0 0
115 0 0 0
116 0 0 0
117 0 0 0
118 0 0 0
119 0 0 0
120 0 0 0
121 0 0 0
122 0 0 0
123 0 0 0
124 0 0 0
125 0 0 0
126 0 0 0
127 0 0 0
128 0 0 0
129 0 0 0
130 0 0 0
131 0 0 0
132 0 0 0
133 0 0 0
134 0 0 0
135 0 0 0
136 0 0 0
137 0 0 0
138 0 0 0
139 0 0 0
140 0 0 0
141 0 0 0
142 0 0 0
143 0 0 0
144 0 0 0
145 0 0 0
146 0 0 0
147 0 0 0
148 0 0 0
149 0 0 0
150 0 0 0
151 0 0 0
152 0 0 0
153 0 0 0
154 0 0 0
155 0 0 0
156 0 0 0
157 0 0 0
158 0 0 0
159 0 0 0
160 0 0 0
