LAMMPS data file via write_data, version 23 Jun 2022, timestep = 10000

160 atoms
3 atom types

0.6318778227158277 20.236522177284172 xlo xhi
0.23913011992998523 18.922869880070014 ylo yhi
0.7104400000000001 17.050559999999994 zlo zhi
0 0 0 xy xz yz

Masses

1 132.904999
2 126.90447
3 204.199997

Pair Coeffs # lj/cut/coul/long

1 0.0898565 3.52101
2 0.0427844 5.04975
3 0.00518862 4.043

Atoms # full

1 0 1 0.85 4.733830041176638 1.6544698331664025 12.01732477477805 0 0 0
2 0 1 0.85 1.9425947970188853 3.6654682265657565 3.7004250021299034 0 0 0
3 0 1 0.85 6.3177094482001745 3.8710257273101383 5.351497999394166 0 0 0
4 0 1 0.85 9.55954676161965 1.352263113023303 14.03914565130486 0 0 0
5 0 1 0.85 4.515583515077552 6.057055685853538 11.992884458655475 0 0 0
6 0 1 0.85 1.5232375051350162 8.382133239518355 3.691891762766593 0 0 0
7 0 1 0.85 6.216713553166784 8.446207753307759 5.766989121642799 0 0 0
8 0 1 0.85 9.683087211637092 6.060879359075951 14.001807456573744 0 0 0
9 0 1 0.85 4.8433115302563925 10.738178755142775 11.773192937656162 0 0 0
10 0 1 0.85 1.4625974940466389 13.097309710459706 3.7568564412314034 0 0 0
11 0 1 0.85 6.697058750013904 12.962267468721626 5.765573271810198 0 0 0
12 0 1 0.85 9.255206879054688 10.699600356546616 13.940118327388282 0 0 0
13 0 1 0.85 4.744074251904218 15.462914010110817 11.876348847025127 0 0 0
14 0 1 0.85 1.7001752292160845 17.80188044865796 3.751884959625 0 0 0
15 0 1 0.85 6.326169005724548 17.858212263832577 5.590548264862875 0 0 0
16 0 1 0.85 9.61285248809376 15.422899841289523 13.798090050907108 0 0 0
17 0 1 0.85 14.48071608363687 1.810543702898984 12.214772448654148 0 0 0
18 0 1 0.85 11.153595064843701 3.775106508763934 3.921390504844103 0 0 0
19 0 1 0.85 16.240472541181592 3.576083349848659 5.6789041279872245 0 0 0
20 0 1 0.85 19.27247062214061 1.4059600984218528 13.761214180751375 0 0 0
21 0 1 0.85 14.456151531536246 6.124551169388368 12.03656162798528 0 0 0
22 0 1 0.85 11.489325084917112 8.453614665517202 3.8683116844725616 0 0 0
23 0 1 0.85 16.20902359571982 8.570429747013225 5.935876434146948 0 0 0
24 0 1 0.85 19.573503907789565 6.128687521466325 14.010187558399863 0 0 0
25 0 1 0.85 14.189872778730765 10.807830207078508 11.977771475730439 0 0 0
26 0 1 0.85 11.269392425478552 13.32546167803687 3.78711251629658 0 0 0
27 0 1 0.85 16.404516568678 13.126039884632453 5.940165586187441 0 0 0
28 0 1 0.85 19.371353722666623 10.701173074141598 13.812433797511938 0 0 0
29 0 1 0.85 14.398136596622711 15.292376947124755 11.785326759494907 0 0 0
30 0 1 0.85 11.016562292958557 17.828393723041227 3.7206289453593637 0 0 0
31 0 1 0.85 15.985930786568613 17.62788791844649 5.611075459492094 0 0 0
32 0 1 0.85 19.44420298724295 15.186811405106235 13.926158201264798 0 0 0
33 0 2 -0.83 2.349014958606223 1.2958323059224564 1.1836268781232875 0 0 0
34 0 2 -0.83 3.9083515127164383 4.015700908371012 9.476035763573826 0 0 0
35 0 2 -0.83 8.579494238802127 3.616628701136426 16.568811663156566 0 0 0
36 0 2 -0.83 7.035747785266649 1.5750085618986562 8.607914194558138 0 0 0
37 0 2 -0.83 3.6864389515384897 1.347594285607041 5.675263773756522 0 0 0
38 0 2 -0.83 2.4421886942637783 3.6687385371797627 13.831303090819485 0 0 0
39 0 2 -0.83 7.659339489304923 3.8482745117457298 12.054175552089559 0 0 0
40 0 2 -0.83 8.511421808184737 1.3126743349485144 3.8315428031313084 0 0 0
41 0 2 -0.83 20.093734841799243 1.6259244424459207 10.345950056646894 -1 0 0
42 0 2 -0.83 5.27501054708905 3.6694449317725883 2.2988583577856216 0 0 0
43 0 2 -0.83 10.284747380244797 3.721286075415249 7.273494405780445 0 0 0
44 0 2 -0.83 5.4792779645805485 1.4071345654373106 15.482044873420381 0 0 0
45 0 2 -0.83 2.3527493309429484 6.207731441395113 0.8813781421019421 0 0 0
46 0 2 -0.83 3.7679654049840194 8.559441813412066 8.97888762226919 0 0 0
47 0 2 -0.83 8.691408912157021 8.478903942994314 16.756342437539292 0 0 0
48 0 2 -0.83 7.253863550849365 5.931330186938014 8.315144869308051 0 0 0
49 0 2 -0.83 3.808487247935995 6.061580409806077 5.906923219246551 0 0 0
50 0 2 -0.83 2.519587399280761 8.635121060945401 13.79446325981444 0 0 0
51 0 2 -0.83 7.410947136879724 8.311398337357838 11.989244431194063 0 0 0
52 0 2 -0.83 8.665978238558244 6.179370537843901 3.934497684065147 0 0 0
53 0 2 -0.83 20.155372543005257 6.346103221935646 10.413279406484033 -1 0 0
54 0 2 -0.83 5.412108354641436 8.405824712264462 2.2806411071509443 0 0 0
55 0 2 -0.83 10.30867919472111 8.375656964197402 7.303160166582734 0 0 0
56 0 2 -0.83 5.650397985345279 5.923144250179826 15.660514409583685 0 0 0
57 0 2 -0.83 2.2937451272039384 11.046704761546087 0.9483003515930113 0 0 0
58 0 2 -0.83 3.8473696285211285 13.143208513847059 9.137731876600569 0 0 0
59 0 2 -0.83 8.970891601788766 12.863101058811266 16.922056295495732 0 0 0
60 0 2 -0.83 7.183490328615067 10.71438413846429 8.62448981043013 0 0 0
61 0 2 -0.83 3.584882098394827 10.811586773313708 5.483544226636808 0 0 0
62 0 2 -0.83 2.652872854555187 13.013182396515354 13.727489953459568 0 0 0
63 0 2 -0.83 7.5464170241223085 13.164165705194007 12.311801206775574 0 0 0
64 0 2 -0.83 8.569931191088232 10.620483770949988 4.08431694898413 0 0 0
65 0 2 -0.83 0.6714629181843547 11.020760732257402 10.470051800370353 0 0 0
66 0 2 -0.83 5.603390106437453 12.993366127657195 2.3475339287622137 0 0 0
67 0 2 -0.83 10.167050824662793 13.016885556372541 7.366574442130282 0 0 0
68 0 2 -0.83 5.714457041027609 10.661068486723755 15.48021193774572 0 0 0
69 0 2 -0.83 2.2768801075965315 15.330535869843807 0.9634485241476346 0 0 0
70 0 2 -0.83 3.938807917547772 17.90815438735797 9.382096339928664 0 0 0
71 0 2 -0.83 8.821900801692292 17.82987561835904 16.74637414430414 0 0 0
72 0 2 -0.83 7.094712938937004 15.372462662955341 8.652843721999734 0 0 0
73 0 2 -0.83 3.7304985537925384 15.44570849283333 5.933027163916478 0 0 0
74 0 2 -0.83 2.3745724097159653 17.74275934675367 13.819487443874598 0 0 0
75 0 2 -0.83 7.3604120860912765 17.727196904507824 12.188251623174422 0 0 0
76 0 2 -0.83 8.432054852517451 15.524924591181492 3.8768172106992025 0 0 0
77 0 2 -0.83 20.206648156899508 15.383958386188466 10.427412895299046 -1 0 0
78 0 2 -0.83 5.418161171957578 17.57788069998411 2.288209295749387 0 0 0
79 0 2 -0.83 10.211104890484446 17.748212372517106 7.310149035774392 0 0 0
80 0 2 -0.83 5.77277815599764 15.401253868042811 15.546677748618654 0 0 0
81 0 2 -0.83 12.024691251098867 1.599950305749791 1.0963536072474538 0 0 0
82 0 2 -0.83 13.47991566781895 3.778994431978775 9.362679410256757 0 0 0
83 0 2 -0.83 18.758617029489802 3.6285424413004126 16.724376563274195 0 0 0
84 0 2 -0.83 16.949021531265757 1.3393998865352812 8.366685729864436 0 0 0
85 0 2 -0.83 13.394143431957467 1.3560988367789204 5.685850600282189 0 0 0
86 0 2 -0.83 12.460266924295485 3.733327850021366 13.983506609161031 0 0 0
87 0 2 -0.83 17.31119558796391 3.8828939612537785 12.07108869677557 0 0 0
88 0 2 -0.83 18.420149665347225 1.2510748053763399 3.9761177580991762 0 0 0
89 0 2 -0.83 10.350733447465482 1.2007846787003253 10.46623555307203 0 0 0
90 0 2 -0.83 15.340018045121672 3.930510255757316 2.376081833778004 0 0 0
91 0 2 -0.83 0.7365799997863935 3.843602768011176 7.33840812166783 1 0 0
92 0 2 -0.83 15.526609277797938 1.4352340505660908 15.547685223802869 0 0 0
93 0 2 -0.83 12.018901502990499 6.056188555656759 1.0036703497285184 0 0 0
94 0 2 -0.83 13.641071545583985 8.406653134442578 9.130417406083659 0 0 0
95 0 2 -0.83 18.701305037702642 8.29643499696965 16.87159397496587 0 0 0
96 0 2 -0.83 16.87389460557808 6.106348603501236 8.471812674661711 0 0 0
97 0 2 -0.83 13.306262153337107 5.955524706234745 5.678801485494137 0 0 0
98 0 2 -0.83 12.49411750133158 8.525605849148517 13.829039429404668 0 0 0
99 0 2 -0.83 16.997809323696547 8.345122968994078 12.075685625877014 0 0 0
100 0 2 -0.83 18.649886684786686 5.923612971487173 3.884161906686404 0 0 0
101 0 2 -0.83 10.476904335502686 6.07135926050227 10.405895231819075 0 0 0
102 0 2 -0.83 15.394275195363788 8.113034322955647 2.578695079222863 0 0 0
103 0 2 -0.83 19.868169690779027 8.537608791046377 7.3100768593301115 0 0 0
104 0 2 -0.83 15.307191383143811 6.026259551620355 15.507014089794302 0 0 0
105 0 2 -0.83 12.293990250225628 10.57637225840331 1.2678318776749287 0 0 0
106 0 2 -0.83 13.468133279884883 12.961317980477578 9.210254586712729 0 0 0
107 0 2 -0.83 18.533355761321282 13.040520433085964 16.69079394325022 0 0 0
108 0 2 -0.83 16.958836240685603 10.862079686142001 8.598929692250872 0 0 0
109 0 2 -0.83 13.355483962611933 10.930408750649724 5.653367099050564 0 0 0
110 0 2 -0.83 12.261188442736579 13.049052561605917 13.879906235616186 0 0 0
111 0 2 -0.83 17.146021952839437 12.983060353286927 12.168542520200154 0 0 0
112 0 2 -0.83 18.396947314261393 10.583243464207746 4.0070765687223115 0 0 0
113 0 2 -0.83 10.437692404072438 10.75486952068263 10.57334674022715 0 0 0
114 0 2 -0.83 15.324339586909359 12.86616948314483 2.3309469647033545 0 0 0
115 0 2 -0.83 20.060143026938395 12.910981027504265 7.028582876094068 0 0 0
116 0 2 -0.83 15.466081487608985 10.484264098053178 15.613480798701882 0 0 0
117 0 2 -0.83 12.106053778975344 15.463114792066905 1.182655341736076 0 0 0
118 0 2 -0.83 13.538038652147394 17.667273859087192 9.103028800225815 0 0 0
119 0 2 -0.83 18.737500450868165 17.584339663203686 16.70347405116201 0 0 0
120 0 2 -0.83 16.830493298899185 15.276243447494908 8.68144888219264 0 0 0
121 0 2 -0.83 13.25051076054667 15.383220214155791 5.539377077732592 0 0 0
122 0 2 -0.83 12.323815793879271 17.77715354266276 13.85220891842842 0 0 0
123 0 2 -0.83 17.19233253507241 17.79713128190034 12.034637812750825 0 0 0
124 0 2 -0.83 18.51549067370377 15.437132915568329 3.8030586789596406 0 0 0
125 0 2 -0.83 10.554693903611481 15.390330218802786 10.404587472552091 0 0 0
126 0 2 -0.83 15.460498190100878 17.726423300585086 2.2618668879844193 0 0 0
127 0 2 -0.83 20.204421527472054 17.766448486848173 7.401545219474607 0 0 0
128 0 2 -0.83 15.444987168359589 15.552594449608906 15.457840572212795 0 0 0
129 0 3 1.64 2.6726547096633033 1.62007682235551 8.147705988814517 0 0 0
130 0 3 1.64 3.823099262970046 3.9966205142454823 16.355854221907205 0 0 0
131 0 3 1.64 8.600167678236705 3.704765247612407 9.428576466236295 0 0 0
132 0 3 1.64 7.306116062670638 1.2410418616522654 1.3108008158136015 0 0 0
133 0 3 1.64 2.3401248778178267 6.1106574696101665 8.354518012253095 0 0 0
134 0 3 1.64 3.638064846681319 8.604682883313053 16.335308501947964 0 0 0
135 0 3 1.64 8.58426147636041 8.194296876819307 9.615366324981037 0 0 0
136 0 3 1.64 7.647169169937406 6.168837087611967 1.4676876575827984 0 0 0
137 0 3 1.64 2.3379678130027846 10.90512190066951 8.015526813515168 0 0 0
138 0 3 1.64 3.7585897905022003 13.289010278579351 16.24125827617367 0 0 0
139 0 3 1.64 8.698949195292256 13.040423024145156 9.725548863871898 0 0 0
140 0 3 1.64 7.344531576259525 10.642078093151273 1.627601726971879 0 0 0
141 0 3 1.64 2.712775548994789 15.61914546571588 8.355889546703024 0 0 0
142 0 3 1.64 3.584536934876781 17.858616006588814 16.236079584192037 0 0 0
143 0 3 1.64 8.27307135195799 17.748237112404762 9.662729456378433 0 0 0
144 0 3 1.64 7.604213668732786 15.35595276306211 1.2964574280488173 0 0 0
145 0 3 1.64 11.930726318824371 1.2513892865113438 8.030040343394655 0 0 0
146 0 3 1.64 13.669668760229282 3.741494977238972 16.379501784286404 0 0 0
147 0 3 1.64 18.23660488344744 3.677761414752425 9.506035981942075 0 0 0
148 0 3 1.64 17.483877331537517 1.2860105589216766 1.476926021984259 0 0 0
149 0 3 1.64 12.423725176656143 6.116372526571731 8.272267904115559 0 0 0
150 0 3 1.64 13.637555683007523 8.275236186857661 16.37846872643857 0 0 0
151 0 3 1.64 17.97958097936873 8.406686417024721 9.528760116592604 0 0 0
152 0 3 1.64 17.328835797863842 5.997991233353277 1.416522667373109 0 0 0
153 0 3 1.64 12.06058612559051 10.776326521118131 8.105329651807441 0 0 0
154 0 3 1.64 13.306112819769401 13.016295638581234 16.494375503708834 0 0 0
155 0 3 1.64 18.38318478965099 13.119086630547512 9.695633389618786 0 0 0
156 0 3 1.64 17.442922575841685 10.816407740052087 1.4415457018943232 0 0 0
157 0 3 1.64 12.291162709823038 15.357597847864616 8.099084819891921 0 0 0
158 0 3 1.64 13.574777636341205 17.729890204639684 16.296490740440404 0 0 0
159 0 3 1.64 18.336857228845012 17.708189974228958 9.449565177666575 0 0 0
160 0 3 1.64 17.254259154560078 15.409895745424476 1.3628361184826103 0 0 0

Velocities

1 0.0008560034991484988 0.0011557358120483014 0.001606250339516632
2 -0.0006551394630145663 9.462785236707758e-05 1.94743989184562e-05
3 0.002026516817641627 -0.0028310681837522204 -0.00033554334757171614
4 -0.0008236073789671351 -0.001872929936428094 -0.001366813209292629
5 -0.0013566192354596694 0.0027983168322139582 -0.0017234352750967105
6 -0.0018145871952684458 -0.0003633058387936208 0.0005171969862549802
7 -0.00036231784564332123 -0.0011280283965424275 -0.0004790992230266748
8 0.0011018000331434869 -0.0002228624463061838 -0.0005700048183623934
9 -0.0010085538025480746 -0.0033768127988020747 -0.000249885445590336
10 0.0014112564288706758 -0.0018116758030647722 0.0007857485174542236
11 0.0003594593637876376 -0.0018583868268285816 -0.0004537314886612188
12 0.0003476153277108652 0.0007232079728225392 -0.0011375043554322716
13 -0.0013282044830488602 0.0012674233718093304 -0.0001353013139970449
14 0.0017879382915933753 0.0010281873889285593 0.001831750652100983
15 0.002044995984914992 -0.0002651152974638286 -0.0003947670405109339
16 9.301054362922153e-05 0.0010052113817663189 -0.00029124609066100875
17 -0.0016987392251841026 -0.0011376808614763428 0.0001579729670743154
18 -0.0004952649444349305 -0.0013234608618408613 0.0012314532623899786
19 0.0014846843332602922 0.0007778140528167433 -0.00016035946250309114
20 -0.0031263471115063647 0.00012993191278613778 0.0014672657064067392
21 -0.000774160653941539 0.0007385255749107422 0.0021331440125361297
22 0.00043480200374823347 -0.0016362599949697023 0.00202098483654924
23 0.00036653753908742927 0.0003574103405342581 -0.0010032052969846143
24 -0.0001390382779046051 -0.0030059201618211286 0.0001018722869162191
25 0.0002862780100180249 -1.8297396082949812e-05 -0.002179204890362264
26 -0.00033108197137759354 -0.000538143913433198 0.0006530755746210093
27 0.0007903390060303194 0.001415440888762726 3.361123900979493e-05
28 -8.13537333482039e-05 0.0008060522586262437 0.0011655792657249483
29 0.00031304248035360723 4.044409695168722e-05 0.0002249991864053548
30 0.0006744277729995395 6.276769030983564e-05 -0.0027816955438072317
31 0.001303253958778805 -0.0002953767023685841 0.0010299584833826578
32 -0.0021437448356488057 -0.00013097594603026625 0.0027523330401448983
33 -0.0006677439226274425 0.0010688097632153878 0.00014175387229878946
34 -0.0015089761667776394 0.0004263580546365777 0.00032166295418102484
35 -0.0009738533756121781 -0.0012518243340022427 -6.544025569554149e-05
36 -0.000648243348951595 -0.000776551610127021 0.0015226170457716954
37 -0.00014431128754096125 -0.004075015261655567 0.001609414553205477
38 0.0032291595406589058 -0.001690968448388256 0.0011359433989469709
39 -0.0005222439033381395 0.0001359780136596956 0.0007725140931498225
40 0.0009161747198804778 0.0004354505199850669 -0.0017935666530565536
41 -0.0012017625756346895 -0.001911227649691617 0.0010193707906037722
42 -0.001039220613377025 0.0030301152836965705 0.00024485961148501393
43 -0.00160782648966948 8.496822218531432e-06 0.0003209689832975423
44 0.0009497867694962538 0.0018249871166401452 -0.0002660866676589908
45 -0.00045754207652233406 -0.0001302434855320584 0.00017627745377501043
46 0.0012874649473855488 0.0023952571619043363 0.0008754769930131899
47 -0.0008980309926844674 -0.0005656118402599998 -0.0006959710792915655
48 0.00041202953330720906 -0.0001934337308997521 0.00010891102368404926
49 -0.00048017730754485946 0.0009272382589142775 -0.00048228072369447113
50 0.0002714883746291076 0.001775678848487092 -0.0010823358832313845
51 -0.0006557996453763838 0.002708755986966887 0.0037170985069347067
52 -0.0017930090673301576 -0.0014145601877809401 -0.0015232128444680442
53 0.0007085385074131906 -0.0014566528850726737 -0.0010199055826042975
54 -7.428450441470957e-05 0.00018186261739028216 -0.0006590654215471352
55 0.0008582066945944945 -0.00036238496441181055 -0.0015404145480042736
56 -9.32281465931743e-05 0.0004337369951964598 -0.0008475817856315385
57 -0.0011016824053521144 0.000699183757447614 3.387787968278588e-05
58 -0.00048187290558694923 0.0018182056655660192 3.195597062401276e-05
59 0.0009094661893793327 -0.001590406153936074 0.002218886990756588
60 -0.0005400516855161586 -0.0008458080513774984 0.0023912567093025477
61 -8.209413454335534e-05 -1.5621516992438357e-05 -0.0029693367029056538
62 0.001264162905486186 -0.00048408433413304726 0.0014167051909667486
63 -0.0002931268130987794 0.0017844876514351107 0.0003118561368438054
64 -0.00141822510653192 0.00020806763364453543 -0.000213383340337157
65 -0.0011164720884193548 0.00033397806404724653 -0.00024032686919477363
66 0.00048797243062551743 -0.002240785270222638 -0.001785583667077587
67 -0.0016073107582858673 -0.0018799025571944428 -0.0016923676510874931
68 0.00567873528677012 0.0006477721232805404 -0.0019002468142260759
69 -0.0024460767778129323 0.0022160544234606076 -0.0014729037452869446
70 0.0010417068875587783 0.00019016545059840508 -0.0021505340999126627
71 -0.0019854590089710034 0.0031901705594651626 -0.0014922544793482798
72 0.0006917796908443633 -0.0005043250489752635 0.0015517141382542213
73 0.002600509687003733 -0.00040542879578140995 -0.0018295547275752305
74 -0.0002022721276131285 -0.0023853989358787026 0.0015529622125848108
75 -0.0026264107447368174 0.002301574734041733 -0.002208320996018746
76 0.003125663485715526 0.0012951721870768083 -0.0013104838276286035
77 -0.00232385487782548 0.0012162072287626284 0.0007812988064574727
78 -0.0015866912719926976 0.0008935136665105522 0.0005942467835033876
79 -0.0011506418125339923 -0.002947294046065581 0.0003855954445830884
80 -0.0010121155692506042 -0.00210757824101299 -0.002175750502891523
81 -3.697702653113946e-05 0.0010813474147607037 -0.0027555577951320614
82 -0.002221832369356276 0.0008366548955781717 -0.0005397285676967167
83 0.0018437466447554264 0.0007025863926504361 0.0015646009215742388
84 -0.000522015120200042 -0.0018326360456966638 -0.0008832226739166531
85 -0.0013864408682294693 -0.002501674012262357 -0.0005958543254819253
86 0.0005502711484663287 0.0009122892589176042 0.0014321613286607724
87 0.0002950349408175431 -0.0008259462204092321 0.00028325593182512005
88 0.0016447869037723621 -0.0008435409863211634 -0.002239637482808207
89 8.466273069569641e-05 -0.0004440005449868179 -0.000996115088689448
90 -0.002180137958875161 -0.0014907018368829675 0.0018242690516418242
91 -0.00107017019766676 0.0012994608441616448 0.0011395818833522375
92 0.0006665235273240463 0.0012681503360379382 0.0016231202366140238
93 -0.0009670254958681811 0.0024204003173002382 -0.0015848288474433958
94 0.0025688444012610654 -0.00035247595128172634 0.0008515642308684446
95 -0.0010876333719483653 0.0013781323371944848 0.0010308731733619089
96 0.00016377273834436207 0.0015868321995949483 0.001736187222106329
97 0.0010311508718205834 0.000943944040922379 -0.0007477060536546568
98 0.0006080297034220432 -0.0007410934443174006 -0.0010065747493453539
99 -0.0004585367556366811 -8.934521853864552e-06 0.0005286884181149319
100 0.0010386135165610089 -0.0003503766812047209 0.001581991735166058
101 -0.00013830321932276329 0.000997762705827277 -8.075300922912909e-06
102 0.0015669900780168559 0.0004557587513312831 -0.00018334300446586603
103 -0.0007111444230231695 -0.0005766257362241285 -0.0016718168645385007
104 -0.0010052823572778609 -0.0009542695347398431 -0.0016472717429670785
105 0.0005645761167261767 0.002342815369572954 0.00047952780970264623
106 0.003003269987276909 -0.000244710228873379 -0.0009433749507472664
107 -0.0015619134347232735 0.003262730729499844 0.0003919524374487568
108 0.0011671602388335285 0.0011911645553792558 0.0005350848668405115
109 0.0006095120783242855 0.0004266735502115307 -0.0006631558548886451
110 0.0008140276565206767 -0.0005501591950618914 0.000583553087736412
111 -0.00018020743575707527 0.0025257830903911435 0.0009450001027733877
112 -0.001263750062109912 0.0013703947616501835 -0.0010617250693724118
113 -0.0012120708100012345 0.0011260092974856718 -0.0024361788098609502
114 0.00046137707334058215 -0.00011245219458047817 0.0007464100094379986
115 -0.0007593551396299953 -0.0012697104482288228 0.0008279421820784627
116 0.0001899139391260953 -0.0014006861069481135 0.00038471489668949975
117 0.0007167838722892153 0.0024633727718620714 -0.0005890813425418994
118 0.000114444695192017 -0.0007948303923575182 -5.572848674520714e-05
119 0.0010920857893712368 0.002260814812756783 0.0006043058741158691
120 0.0008352258427062757 -7.627169741428481e-05 0.0022935444788550552
121 0.0005968101897995799 -0.0020406887262992713 0.0017225199456394561
122 -0.0002552388733618606 0.0016616345763852552 0.00022514231386659277
123 0.001052268554038882 -0.0017195830994602471 -0.0010961228198900312
124 -0.0015998046486667681 0.002044963670743382 -0.0004767313182195565
125 -0.0008823987750933904 -0.0010705288114710085 -0.0009444271443438938
126 -0.001171449161312211 -0.00026640163408503273 0.0017516839956526649
127 0.0012631682476517893 -0.001532407084917583 0.0002564998296052294
128 -0.00012758673039355684 -7.335633750560195e-05 0.0006845927772207047
129 0.0003066445090764531 0.0006840878980762281 0.0002120695283392276
130 -0.001432028458925388 -3.7968919267712224e-05 -0.0003935651413777966
131 -0.0007280994787335465 0.0009428832878022587 -0.001280578655411581
132 -0.0003778094112912874 -0.00025795809959573376 0.0010265232874742355
133 -6.32929691286722e-05 -0.0010868630856800702 -0.0006386033184155446
134 -0.00043206795457426 0.0006200389008486419 -0.0013536563779763834
135 -0.001831990664229202 0.0002826024679081883 0.00012539739311559015
136 0.0004355618474146289 0.0005664504724225912 -0.0010862633362503041
137 -0.00038758872089482026 -0.0016001144287889262 -0.0011302291962312333
138 -0.0017579434098375243 -8.835735345714246e-05 0.0008063420499229963
139 0.0013567134350468452 0.002610723780828499 0.002076887506335164
140 -0.0005196717504767262 -0.0004299850773602913 0.0004480873874599804
141 0.0006333031115284445 -0.00112829287523299 0.001355278727817285
142 1.0002926671010837e-05 -0.00037199297952968655 0.0002897312506313575
143 0.00037413630464477106 0.0011430270462526666 -0.0008143351674643485
144 0.0013862047048791295 0.0006178424135249398 -0.0007421798822751409
145 -0.00039559817075283677 0.00010361307154901976 0.001164385312775188
146 0.0004729733372410034 -0.0019078405003892787 0.0008381330199461372
147 0.0032304379019584225 0.0005393400799249517 -0.0009904348736092215
148 -0.0004824913281718381 0.00027755483932718334 0.002843835431040371
149 0.0002179012952652756 0.00036466471315916947 0.0010816710441842695
150 0.001802828239785216 0.0007669941228999786 -0.00038640630367525096
151 -0.002313546395785211 -0.00030338349878311285 -5.746779013916432e-05
152 0.00194447531077853 -0.0012995519961650785 -0.0021547359008835506
153 0.000219605615121188 -0.0006059909999164236 3.653628589535004e-05
154 -0.000704638755738709 -0.001860782008853973 -0.0007235388110777135
155 0.0009312515382215964 0.0013722272483491444 -0.0004168297919733563
156 0.0003902356921041417 -0.001496792243707786 -0.0005695064076218632
157 0.0013670006336454071 -0.0007527718697678216 0.0003970480877680636
158 0.001032039097352017 0.0007908464605974619 -0.0007577030917051972
159 -0.0010653877118426392 0.0002622592862819189 0.002215969783517221
160 -0.00048546055609989585 -0.002157842145804673 -0.0010520907404718124
