data.CPI (written by ASE) 

160 	 atoms 
3  atom types
0.0                  17.712  xlo xhi
0.0      17.152000000000001  ylo yhi
0.0      24.943999999999999  zlo zhi
                      0                       0                       0  xy xz yz


Atoms 

     1   0   1  0.85               4.0733172       4.331651840000001      3.1179999999999999
     2   0   1  0.85       4.782682799999999      4.2443481599999995      9.3539999999999992
     3   0   1  0.85     0.35468279999999974    0.043651840000000337      9.3539999999999992
     4   0   1  0.85      8.5013172000000008      8.5323481599999997      3.1179999999999999
     5   0   1  0.85               4.0733172       4.331651840000001                   15.59
     6   0   1  0.85       4.782682799999999      4.2443481599999995      21.826000000000001
     7   0   1  0.85     0.35468279999999974    0.043651840000000337      21.826000000000001
     8   0   1  0.85      8.5013172000000008      8.5323481599999997                   15.59
     9   0   1  0.85               4.0733172      12.907651840000002      3.1179999999999999
    10   0   1  0.85       4.782682799999999             12.82034816      9.3539999999999992
    11   0   1  0.85     0.35468279999999974      8.6196518400000013      9.3539999999999992
    12   0   1  0.85      8.5013172000000008      17.108348159999998      3.1179999999999999
    13   0   1  0.85               4.0733172      12.907651840000002                   15.59
    14   0   1  0.85       4.782682799999999             12.82034816      21.826000000000001
    15   0   1  0.85     0.35468279999999974      8.6196518400000013      21.826000000000001
    16   0   1  0.85      8.5013172000000008      17.108348159999998                   15.59
    17   0   1  0.85              12.9293172       4.331651840000001      3.1179999999999999
    18   0   1  0.85      13.638682799999998      4.2443481599999995      9.3539999999999992
    19   0   1  0.85      9.2106827999999989    0.043651840000000337      9.3539999999999992
    20   0   1  0.85      17.357317200000001      8.5323481599999997      3.1179999999999999
    21   0   1  0.85              12.9293172       4.331651840000001                   15.59
    22   0   1  0.85      13.638682799999998      4.2443481599999995      21.826000000000001
    23   0   1  0.85      9.2106827999999989    0.043651840000000337      21.826000000000001
    24   0   1  0.85      17.357317200000001      8.5323481599999997                   15.59
    25   0   1  0.85              12.9293172      12.907651840000002      3.1179999999999999
    26   0   1  0.85      13.638682799999998             12.82034816      9.3539999999999992
    27   0   1  0.85      9.2106827999999989      8.6196518400000013      9.3539999999999992
    28   0   1  0.85      17.357317200000001      17.108348159999998      3.1179999999999999
    29   0   1  0.85              12.9293172      12.907651840000002                   15.59
    30   0   1  0.85      13.638682799999998             12.82034816      21.826000000000001
    31   0   1  0.85      9.2106827999999989      8.6196518400000013      21.826000000000001
    32   0   1  0.85      17.357317200000001      17.108348159999998                   15.59
    33   0   2 -0.85    0.010007279999999999      4.8198835200000003      3.1179999999999999
    34   0   2 -0.85      8.8459927199999999      3.7561164800000006      9.3539999999999992
    35   0   2 -0.85              4.41799272     0.53188351999999972      9.3539999999999992
    36   0   2 -0.85      4.4380072799999999      8.0441164800000013      3.1179999999999999
    37   0   2 -0.85      2.7044452799999998      5.9801305600000001             12.02587656
    38   0   2 -0.85              6.15155472      2.5958694400000004     0.44612344000000004
    39   0   2 -0.85      1.7235547200000001       1.692130559999999     0.44612344000000004
    40   0   2 -0.85      7.1324452799999998      6.8838694400000007             12.02587656
    41   0   2 -0.85              6.15155472      2.5958694400000004      5.7898765599999997
    42   0   2 -0.85      2.7044452799999998      5.9801305600000001      6.6821234399999989
    43   0   2 -0.85      7.1324452799999998      6.8838694400000007      6.6821234399999989
    44   0   2 -0.85      1.7235547200000001       1.692130559999999      5.7898765599999997
    45   0   2 -0.85    0.010007279999999999      4.8198835200000003                   15.59
    46   0   2 -0.85      8.8459927199999999      3.7561164800000006      21.826000000000001
    47   0   2 -0.85              4.41799272     0.53188351999999972      21.826000000000001
    48   0   2 -0.85      4.4380072799999999      8.0441164800000013                   15.59
    49   0   2 -0.85      2.7044452799999998      5.9801305600000001      24.497876560000002
    50   0   2 -0.85              6.15155472      2.5958694400000004      12.918123439999999
    51   0   2 -0.85      1.7235547200000001       1.692130559999999      12.918123439999999
    52   0   2 -0.85      7.1324452799999998      6.8838694400000007      24.497876560000002
    53   0   2 -0.85              6.15155472      2.5958694400000004      18.261876559999997
    54   0   2 -0.85      2.7044452799999998      5.9801305600000001      19.154123439999999
    55   0   2 -0.85      7.1324452799999998      6.8838694400000007      19.154123439999999
    56   0   2 -0.85      1.7235547200000001       1.692130559999999      18.261876559999997
    57   0   2 -0.85    0.010007279999999999      13.395883520000002      3.1179999999999999
    58   0   2 -0.85      8.8459927199999999      12.332116480000002      9.3539999999999992
    59   0   2 -0.85              4.41799272      9.1078835199999997      9.3539999999999992
    60   0   2 -0.85      4.4380072799999999             16.62011648      3.1179999999999999
    61   0   2 -0.85      2.7044452799999998             14.55613056             12.02587656
    62   0   2 -0.85              6.15155472      11.171869440000002     0.44612344000000004
    63   0   2 -0.85      1.7235547200000001      10.268130559999999     0.44612344000000004
    64   0   2 -0.85      7.1324452799999998      15.459869440000002             12.02587656
    65   0   2 -0.85              6.15155472      11.171869440000002      5.7898765599999997
    66   0   2 -0.85      2.7044452799999998             14.55613056      6.6821234399999989
    67   0   2 -0.85      7.1324452799999998      15.459869440000002      6.6821234399999989
    68   0   2 -0.85      1.7235547200000001      10.268130559999999      5.7898765599999997
    69   0   2 -0.85    0.010007279999999999      13.395883520000002                   15.59
    70   0   2 -0.85      8.8459927199999999      12.332116480000002      21.826000000000001
    71   0   2 -0.85              4.41799272      9.1078835199999997      21.826000000000001
    72   0   2 -0.85      4.4380072799999999             16.62011648                   15.59
    73   0   2 -0.85      2.7044452799999998             14.55613056      24.497876560000002
    74   0   2 -0.85              6.15155472      11.171869440000002      12.918123439999999
    75   0   2 -0.85      1.7235547200000001      10.268130559999999      12.918123439999999
    76   0   2 -0.85      7.1324452799999998      15.459869440000002      24.497876560000002
    77   0   2 -0.85              6.15155472      11.171869440000002      18.261876559999997
    78   0   2 -0.85      2.7044452799999998             14.55613056      19.154123439999999
    79   0   2 -0.85      7.1324452799999998      15.459869440000002      19.154123439999999
    80   0   2 -0.85      1.7235547200000001      10.268130559999999      18.261876559999997
    81   0   2 -0.85      8.8660072799999998      4.8198835200000003      3.1179999999999999
    82   0   2 -0.85             17.70199272      3.7561164800000006      9.3539999999999992
    83   0   2 -0.85      13.273992719999999     0.53188351999999972      9.3539999999999992
    84   0   2 -0.85      13.294007279999999      8.0441164800000013      3.1179999999999999
    85   0   2 -0.85             11.56044528      5.9801305600000001             12.02587656
    86   0   2 -0.85             15.00755472      2.5958694400000004     0.44612344000000004
    87   0   2 -0.85      10.579554720000001       1.692130559999999     0.44612344000000004
    88   0   2 -0.85      15.988445280000001      6.8838694400000007             12.02587656
    89   0   2 -0.85             15.00755472      2.5958694400000004      5.7898765599999997
    90   0   2 -0.85             11.56044528      5.9801305600000001      6.6821234399999989
    91   0   2 -0.85      15.988445280000001      6.8838694400000007      6.6821234399999989
    92   0   2 -0.85      10.579554720000001       1.692130559999999      5.7898765599999997
    93   0   2 -0.85      8.8660072799999998      4.8198835200000003                   15.59
    94   0   2 -0.85             17.70199272      3.7561164800000006      21.826000000000001
    95   0   2 -0.85      13.273992719999999     0.53188351999999972      21.826000000000001
    96   0   2 -0.85      13.294007279999999      8.0441164800000013                   15.59
    97   0   2 -0.85             11.56044528      5.9801305600000001      24.497876560000002
    98   0   2 -0.85             15.00755472      2.5958694400000004      12.918123439999999
    99   0   2 -0.85      10.579554720000001       1.692130559999999      12.918123439999999
   100   0   2 -0.85      15.988445280000001      6.8838694400000007      24.497876560000002
   101   0   2 -0.85             15.00755472      2.5958694400000004      18.261876559999997
   102   0   2 -0.85             11.56044528      5.9801305600000001      19.154123439999999
   103   0   2 -0.85      15.988445280000001      6.8838694400000007      19.154123439999999
   104   0   2 -0.85      10.579554720000001       1.692130559999999      18.261876559999997
   105   0   2 -0.85      8.8660072799999998      13.395883520000002      3.1179999999999999
   106   0   2 -0.85             17.70199272      12.332116480000002      9.3539999999999992
   107   0   2 -0.85      13.273992719999999      9.1078835199999997      9.3539999999999992
   108   0   2 -0.85      13.294007279999999             16.62011648      3.1179999999999999
   109   0   2 -0.85             11.56044528             14.55613056             12.02587656
   110   0   2 -0.85             15.00755472      11.171869440000002     0.44612344000000004
   111   0   2 -0.85      10.579554720000001      10.268130559999999     0.44612344000000004
   112   0   2 -0.85      15.988445280000001      15.459869440000002             12.02587656
   113   0   2 -0.85             15.00755472      11.171869440000002      5.7898765599999997
   114   0   2 -0.85             11.56044528             14.55613056      6.6821234399999989
   115   0   2 -0.85      15.988445280000001      15.459869440000002      6.6821234399999989
   116   0   2 -0.85      10.579554720000001      10.268130559999999      5.7898765599999997
   117   0   2 -0.85      8.8660072799999998      13.395883520000002                   15.59
   118   0   2 -0.85             17.70199272      12.332116480000002      21.826000000000001
   119   0   2 -0.85      13.273992719999999      9.1078835199999997      21.826000000000001
   120   0   2 -0.85      13.294007279999999             16.62011648                   15.59
   121   0   2 -0.85             11.56044528             14.55613056      24.497876560000002
   122   0   2 -0.85             15.00755472      11.171869440000002      12.918123439999999
   123   0   2 -0.85      10.579554720000001      10.268130559999999      12.918123439999999
   124   0   2 -0.85      15.988445280000001      15.459869440000002      24.497876560000002
   125   0   2 -0.85             15.00755472      11.171869440000002      18.261876559999997
   126   0   2 -0.85             11.56044528             14.55613056      19.154123439999999
   127   0   2 -0.85      15.988445280000001      15.459869440000002      19.154123439999999
   128   0   2 -0.85      10.579554720000001      10.268130559999999      18.261876559999997
   129   0   3   1.7                       0      4.2880000000000003                       0
   130   0   3   1.7      4.4279999999999999                       0                       0
   131   0   3   1.7                       0      4.2880000000000003      6.2359999999999998
   132   0   3   1.7      4.4279999999999999                       0      6.2359999999999998
   133   0   3   1.7                       0      4.2880000000000003                  12.472
   134   0   3   1.7      4.4279999999999999                       0                  12.472
   135   0   3   1.7                       0      4.2880000000000003      18.707999999999998
   136   0   3   1.7      4.4279999999999999                       0      18.707999999999998
   137   0   3   1.7                       0      12.864000000000001                       0
   138   0   3   1.7      4.4279999999999999      8.5760000000000005                       0
   139   0   3   1.7                       0      12.864000000000001      6.2359999999999998
   140   0   3   1.7      4.4279999999999999      8.5760000000000005      6.2359999999999998
   141   0   3   1.7                       0      12.864000000000001                  12.472
   142   0   3   1.7      4.4279999999999999      8.5760000000000005                  12.472
   143   0   3   1.7                       0      12.864000000000001      18.707999999999998
   144   0   3   1.7      4.4279999999999999      8.5760000000000005      18.707999999999998
   145   0   3   1.7      8.8559999999999999      4.2880000000000003                       0
   146   0   3   1.7      13.283999999999999                       0                       0
   147   0   3   1.7      8.8559999999999999      4.2880000000000003      6.2359999999999998
   148   0   3   1.7      13.283999999999999                       0      6.2359999999999998
   149   0   3   1.7      8.8559999999999999      4.2880000000000003                  12.472
   150   0   3   1.7      13.283999999999999                       0                  12.472
   151   0   3   1.7      8.8559999999999999      4.2880000000000003      18.707999999999998
   152   0   3   1.7      13.283999999999999                       0      18.707999999999998
   153   0   3   1.7      8.8559999999999999      12.864000000000001                       0
   154   0   3   1.7      13.283999999999999      8.5760000000000005                       0
   155   0   3   1.7      8.8559999999999999      12.864000000000001      6.2359999999999998
   156   0   3   1.7      13.283999999999999      8.5760000000000005      6.2359999999999998
   157   0   3   1.7      8.8559999999999999      12.864000000000001                  12.472
   158   0   3   1.7      13.283999999999999      8.5760000000000005                  12.472
   159   0   3   1.7      8.8559999999999999      12.864000000000001      18.707999999999998
   160   0   3   1.7      13.283999999999999      8.5760000000000005      18.707999999999998
