LAMMPS data file via write_data, version 23 Jun 2022, timestep = 0

160 atoms
3 atom types

0.6836035844738478 17.028396415526203 xlo xhi
0.36353686888386827 16.788463131116224 ylo yhi
1.0288693481249138 23.91513065187504 zlo zhi
-0.08918757869737014 0.11578175911393845 -0.06105043566365031 xy xz yz

Masses

1 132.904999
2 126.90447
3 204.199997

Pair Coeffs # lj/cut/coul/long

1 0.0898565 3.52101
2 0.0427844 5.04975
3 0.094278 4.043

Atoms # full

1 0 1 0.85 4.7062757945966815 4.364344148149131 3.7313719559170786 0 0 0
2 0 1 0.85 4.877465740577425 4.3659246540095795 9.624185060359677 0 0 0
3 0 1 0.85 16.86935296480034 0.6589634002318171 9.841867884340962 -1 0 0
4 0 1 0.85 8.932837542900096 8.418935821750717 3.905881907393327 0 0 0
5 0 1 0.85 4.7635425691867725 4.260539466694696 15.558179883843744 0 0 0
6 0 1 0.85 4.871386936110982 4.715755305903763 21.236590964441874 0 0 0
7 0 1 0.85 0.7289682790316083 16.564165486350497 21.350064724037424 0 -1 0
8 0 1 0.85 9.150869264160718 8.463008142249947 15.336424820323348 0 0 0
9 0 1 0.85 4.654968806126694 12.783489404289936 3.9520935794763696 0 0 0
10 0 1 0.85 4.901497835494037 12.76997298779009 9.6463659374725 0 0 0
11 0 1 0.85 16.88512855975223 8.653179858315589 9.65404211089863 -1 0 0
12 0 1 0.85 8.838685931309755 0.3596376651639978 3.7297917915446206 0 1 0
13 0 1 0.85 4.794331540925381 13.04864633303034 15.153252465981502 0 0 0
14 0 1 0.85 4.945289733891866 12.534145144465173 20.934402122940437 0 0 0
15 0 1 0.85 1.1298825731626296 8.700388215590316 21.263984125867392 0 0 0
16 0 1 0.85 9.068276033136605 16.723094363095516 15.21631984608703 0 0 0
17 0 1 0.85 12.820656177019094 4.101330143288392 3.915116302275869 0 0 0
18 0 1 0.85 12.794040485936305 4.555929606372669 9.313499691431256 0 0 0
19 0 1 0.85 8.716699033427723 0.4462232978474087 9.541343480235577 0 0 0
20 0 1 0.85 0.6547520101447979 8.642037782095525 3.7000931576949556 1 0 0
21 0 1 0.85 12.79950385248419 4.31789998763696 15.232836489944095 0 0 0
22 0 1 0.85 13.204496148636288 4.489745095973719 20.96420063937062 0 0 0
23 0 1 0.85 8.888981010510605 16.63722244139813 20.8995057399661 0 -1 0
24 0 1 0.85 0.9060720176615353 8.6611436849577 15.181495638936576 1 0 0
25 0 1 0.85 12.743002953205849 12.709763484637667 3.742130396777315 0 0 0
26 0 1 0.85 12.644665763126676 12.930947976421924 9.640103624984436 0 0 0
27 0 1 0.85 9.000081446406798 8.478652016660561 9.327458588514277 0 0 0
28 0 1 0.85 16.849014550436035 16.723718510836214 3.9324183357117963 0 0 0
29 0 1 0.85 12.878109950537427 12.632059123426078 15.557905490791367 0 0 0
30 0 1 0.85 12.889565551252025 12.434273442785486 21.227469316272757 0 0 0
31 0 1 0.85 8.914414982899642 8.58398210577958 21.008410570977784 0 0 0
32 0 1 0.85 16.847562332732952 16.420704270968695 15.488319837556721 0 0 0
33 0 2 -0.85 0.8700337892340055 4.958245717577881 3.805253484609545 0 0 0
34 0 2 -0.85 9.248433061753444 4.6216791163591 9.713088246146462 0 0 0
35 0 2 -0.85 4.076381604162959 16.70988598438006 9.579711919648686 0 -1 0
36 0 2 -0.85 4.514738123338032 7.856835787378715 3.910989714048056 0 0 0
37 0 2 -0.85 2.440736131036935 6.83723579851259 11.853672467415771 0 0 0
38 0 2 -0.85 6.847539285724357 2.5023946931508343 23.62195872104899 0 0 -1
39 0 2 -0.85 2.611561586232106 2.3977450828467193 1.3242935584915867 0 0 0
40 0 2 -0.85 6.736868930616771 6.493725454648353 12.33634662485793 0 0 0
41 0 2 -0.85 6.766330495503995 2.356367751623103 7.149958113348394 0 0 0
42 0 2 -0.85 2.916203735397636 6.3762920561120815 7.208538777113063 0 0 0
43 0 2 -0.85 6.986701728242749 6.725749409000606 7.048983444062388 0 0 0
44 0 2 -0.85 2.8962254848271125 2.423478557006019 6.296980567793132 0 0 0
45 0 2 -0.85 1.0089864162600057 5.191125000784949 15.247114536613054 0 0 0
46 0 2 -0.85 9.37310219814601 4.50274198115953 21.159435691226413 0 0 0
47 0 2 -0.85 4.382473832398123 16.53398598515029 20.937200767043667 0 -1 0
48 0 2 -0.85 4.712868184560868 7.960739441101816 15.350340888720467 0 0 0
49 0 2 -0.85 3.014623092585934 6.375098678080952 23.604920572102035 0 0 0
50 0 2 -0.85 6.929333995311441 2.3431702950322717 12.0070277772042 0 0 0
51 0 2 -0.85 2.899124427374947 2.7278217634614426 12.872808249907855 0 0 0
52 0 2 -0.85 7.041100320071467 6.732461462286378 23.73969906275963 0 0 0
53 0 2 -0.85 6.81259455326192 2.30071584052815 18.832881597721386 0 0 0
54 0 2 -0.85 2.773457826653364 6.42619988019604 18.63077817375907 0 0 0
55 0 2 -0.85 6.794831889664012 6.486235951120952 18.840904307219446 0 0 0
56 0 2 -0.85 2.562838351499276 2.1710668770346513 17.749577111170254 0 0 0
57 0 2 -0.85 16.41691022347084 12.645309723599945 3.949905796611017 -1 0 0
58 0 2 -0.85 8.6430746155706 12.2919713195473 9.53045607668214 0 0 0
59 0 2 -0.85 5.086655241993765 9.165254576046548 9.700639227542489 0 0 0
60 0 2 -0.85 5.165822816120878 16.56413798733644 3.887624384812801 0 0 0
61 0 2 -0.85 2.552285532671508 14.902472039921754 13.223962003171906 0 0 0
62 0 2 -0.85 6.663715257524392 10.769217657473314 1.5911175095589398 0 0 0
63 0 2 -0.85 2.3342592477913606 10.370996828394034 1.3104155092883876 0 0 0
64 0 2 -0.85 6.56279318471621 14.645878823708008 12.008631325096902 0 0 0
65 0 2 -0.85 6.887021346394 10.557376078075533 6.124620988504878 0 0 0
66 0 2 -0.85 2.535478829901144 14.771944926305604 6.408231821218537 0 0 0
67 0 2 -0.85 6.634650968568324 14.612579449617742 6.974081779788187 0 0 0
68 0 2 -0.85 2.8544307004317044 10.714648466158792 6.652050499252178 0 0 0
69 0 2 -0.85 16.384811800718808 12.562656258370513 15.24760133752185 -1 0 0
70 0 2 -0.85 8.71468199943308 11.874482833615266 21.077198394606274 0 0 0
71 0 2 -0.85 4.693251279088569 9.103941374493886 21.01865134019621 0 0 0
72 0 2 -0.85 5.466917967768836 0.5648404941481922 15.382787644978213 0 1 0
73 0 2 -0.85 2.6037378638023063 14.810184473030557 1.3497420246678 0 0 1
74 0 2 -0.85 6.840277162005289 10.655745850888517 13.167544934499666 0 0 0
75 0 2 -0.85 2.8064550598236915 10.91093742363935 12.87121026404892 0 0 0
76 0 2 -0.85 6.821694862852803 14.63785103442156 23.654576693363357 0 0 0
77 0 2 -0.85 6.852990684284436 10.474317959326058 17.92050736466848 0 0 0
78 0 2 -0.85 2.7587195976309267 14.638596764635354 17.76812072273386 0 0 0
79 0 2 -0.85 6.857002846277501 14.683296009232226 18.361798481101037 0 0 0
80 0 2 -0.85 2.6812119600679956 10.522035782617015 17.57008454181894 0 0 0
81 0 2 -0.85 8.127074932853587 4.457922994472384 4.010348054688004 0 0 0
82 0 2 -0.85 1.0380558170921095 3.9197767889841586 9.557753197642583 1 0 0
83 0 2 -0.85 12.938923438424068 0.8659526873700175 9.6097691062439 0 0 0
84 0 2 -0.85 13.62331053586678 8.757730627950268 3.9252363559067276 0 0 0
85 0 2 -0.85 10.71138628472095 6.634421993456329 12.936890275525036 0 0 0
86 0 2 -0.85 14.952130455333375 2.27184360309384 1.3287456905491228 0 0 0
87 0 2 -0.85 10.819346186778931 2.3578058129357014 1.1247738105299703 0 0 0
88 0 2 -0.85 14.69317173672013 6.2155204878105765 12.325765473567223 0 0 0
89 0 2 -0.85 15.013802059786562 2.4092589156011064 6.681211572009258 0 0 0
90 0 2 -0.85 11.026999019810237 6.3213474716177105 6.250362230671758 0 0 0
91 0 2 -0.85 15.219975125905485 6.555415326894184 7.069560611417315 0 0 0
92 0 2 -0.85 10.91741115450544 2.3850403711995227 6.404072339379127 0 0 0
93 0 2 -0.85 8.306115342473626 4.296404976200277 15.38978558437319 0 0 0
94 0 2 -0.85 17.01128117385882 3.8055939335875393 20.97519818244673 0 0 0
95 0 2 -0.85 13.092813655207685 0.8244267946629142 21.002708609341205 0 0 0
96 0 2 -0.85 13.692065740160762 8.875597356717947 15.279110589357957 0 0 0
97 0 2 -0.85 11.066705231696405 6.420502222742041 1.640310714876898 0 0 1
98 0 2 -0.85 15.351608848248654 2.2988877809508184 13.088210237452515 0 0 0
99 0 2 -0.85 10.867943533421192 2.4140326721675374 12.969611407941404 0 0 0
100 0 2 -0.85 15.31479746968357 6.497648719695129 23.70099163960712 0 0 0
101 0 2 -0.85 14.915494809237616 2.3772983162155312 17.631151623662145 0 0 0
102 0 2 -0.85 10.87608131927309 6.398540075313094 17.642572791100864 0 0 0
103 0 2 -0.85 15.081469243918246 6.4189738582096165 18.65224539219405 0 0 0
104 0 2 -0.85 10.833483207000993 2.297784080548407 17.80040312926129 0 0 0
105 0 2 -0.85 9.09852490489353 13.18527009396618 3.8688748332487943 0 0 0
106 0 2 -0.85 1.407170904404562 12.872620458465377 9.697755860875546 1 0 0
107 0 2 -0.85 12.240224613780528 8.163388325638316 9.429682772115987 0 0 0
108 0 2 -0.85 12.897455781538051 16.31547630650606 3.9838096652380752 0 0 0
109 0 2 -0.85 10.800774396664195 14.740628506507267 11.965445897425255 0 0 0
110 0 2 -0.85 14.974344891766618 10.720858164237892 23.34712466618606 0 0 -1
111 0 2 -0.85 10.880051424087714 10.555454854136963 1.177276130689126 0 0 0
112 0 2 -0.85 14.917542000138777 14.87986637425698 11.994946212049896 0 0 0
113 0 2 -0.85 14.871171956349343 10.627847622309895 7.395063790212737 0 0 0
114 0 2 -0.85 10.707818148978536 14.803975190812693 7.159524306895589 0 0 0
115 0 2 -0.85 15.016114433883198 14.711950945448864 7.396410578718063 0 0 0
116 0 2 -0.85 11.003935528174038 10.524878584242558 6.35421970793343 0 0 0
117 0 2 -0.85 9.129739971794457 13.17605053002552 15.324171803431645 0 0 0
118 0 2 -0.85 1.3579669289819627 12.759759370772064 20.99272861222509 1 0 0
119 0 2 -0.85 12.537661244566772 8.323150429181434 20.867820828089528 0 0 0
120 0 2 -0.85 12.922655987722663 16.07042999696775 15.312937440029867 0 0 0
121 0 2 -0.85 10.871138907276496 14.715987977073615 23.37647356870539 0 0 0
122 0 2 -0.85 15.060242689260374 10.58597643303679 11.870627301560356 0 0 0
123 0 2 -0.85 10.983653700408802 10.637475840794973 12.716479883798403 0 0 0
124 0 2 -0.85 15.031167791331237 14.636915146734456 23.60069166973811 0 0 0
125 0 2 -0.85 15.196017992581737 10.548247113413153 18.44595636672742 0 0 0
126 0 2 -0.85 11.038697266206107 14.443990929775234 18.599211405659908 0 0 0
127 0 2 -0.85 14.929124803683607 14.549526249118804 18.457864667360607 0 0 0
128 0 2 -0.85 10.900272826575074 10.42694945567613 17.830855488404033 0 0 0
129 0 3 1.7 0.7034963937018761 4.4537371795197895 1.0486515225354691 0 0 0
130 0 3 1.7 4.6794056216433235 0.4113823644928976 1.0309285292658321 0 0 0
131 0 3 1.7 0.8604583262056841 4.422786275067014 6.681890513641068 0 0 0
132 0 3 1.7 4.658701747557911 16.76374299170193 6.790049854176016 0 -1 0
133 0 3 1.7 0.7963284606508433 4.545834596829487 12.43676607848827 0 0 0
134 0 3 1.7 4.797650001182587 0.3974573951274131 12.463848177086764 0 0 0
135 0 3 1.7 17.002063558337177 4.371359406968307 18.064818015891202 -1 0 0
136 0 3 1.7 4.7354648065799605 16.66684224452092 18.14762043462062 0 -1 0
137 0 3 1.7 0.7664712395689315 12.672543963713746 23.867626048141428 0 0 -1
138 0 3 1.7 4.698133044394349 8.594033187746803 1.0521399065357566 0 0 0
139 0 3 1.7 0.673153750091539 12.684768571156997 6.898259740829999 0 0 0
140 0 3 1.7 4.794365246686938 8.553756729570791 6.707926791426305 0 0 0
141 0 3 1.7 16.85269952415694 12.822889080488295 12.452477047572302 -1 0 0
142 0 3 1.7 4.723212391247315 8.644746879769235 12.53675849425416 0 0 0
143 0 3 1.7 0.7984057464751048 12.490539358607556 18.09354760642407 0 0 0
144 0 3 1.7 4.778873127126023 8.615185271720588 18.151632745117325 0 0 0
145 0 3 1.7 8.826242036372715 4.481968772962667 1.1516488212171596 0 0 0
146 0 3 1.7 12.94467073636449 16.694072606740743 23.859433552638208 0 -1 -1
147 0 3 1.7 8.81775662138077 4.374257391408455 6.85698691712529 0 0 0
148 0 3 1.7 12.914326033597591 16.751365152402432 6.841264348955492 0 -1 0
149 0 3 1.7 8.817015812259395 4.404561009245344 12.576761846135003 0 0 0
150 0 3 1.7 13.059521023588234 0.4907593989209197 12.530733682551492 0 0 0
151 0 3 1.7 8.837956904909401 4.303596348981684 18.34609127720033 0 0 0
152 0 3 1.7 12.947852568071408 16.685605094381753 18.131159669755537 0 -1 0
153 0 3 1.7 8.961706761245265 12.642877848151407 23.900908449399967 0 0 -1
154 0 3 1.7 13.139598521608786 8.519989818698246 23.887575581957382 0 0 -1
155 0 3 1.7 8.784255090660897 12.62747350674649 6.6269887930653635 0 0 0
156 0 3 1.7 13.00631409397209 8.45834284546226 6.69363886496722 0 0 0
157 0 3 1.7 8.725788604337193 12.69495811275339 12.529900747639626 0 0 0
158 0 3 1.7 12.941935554335734 8.537607085798056 12.33705588366837 0 0 0
159 0 3 1.7 8.875604651435438 12.538934607095541 18.24446151001003 0 0 0
160 0 3 1.7 12.98164263766345 8.557119916513393 18.09378362151859 0 0 0

Velocities

1 0.000830173590733 0.0009741429875103381 9.792338552578537e-05
2 -0.00132470355910383 0.0022310796838477575 0.0005427791594265584
3 0.0027586334617130757 -0.0005845177812077413 -0.0019656227926447482
4 -0.0028160137068752285 0.001601789761886074 0.0010917337437692572
5 -0.001513937668203671 -0.0011639133047276757 8.176757946340513e-05
6 0.0015254429950245462 -0.0003289937028144741 0.0012747443365899065
7 -0.001374422370432054 -0.000246328666502924 0.0006719525176848665
8 0.0005443855987086371 -0.002026084960136121 0.0007347730518842624
9 0.00034774778400875953 0.0001918369086607858 -0.00023653840259066955
10 0.002433143456016303 -0.0020270786234003997 -0.0007118171763185412
11 -0.0006753339267051755 0.0011013624683994876 0.0027729322743095665
12 -0.00022752098789821748 -0.0010128050115383437 0.00011782917968407282
13 0.0006492840980906285 -0.00117300771504035 0.0016776953077317436
14 0.003015535501173764 -0.0024798137446567585 -0.0014845461838646887
15 -0.00225653873427343 -0.002173992429564609 -0.0013802791546483084
16 0.0040478380519240655 -0.001937332779323569 0.0004553587417548594
17 0.0006170185755024477 -0.00037267658848699254 -0.0012181831407735784
18 -5.683743577735747e-05 -0.0005625965490456415 0.0011611785481844747
19 -0.0006734866411516798 -0.001663872663792805 -0.001720121522226032
20 0.0017383565448220782 -0.0005216296824081217 0.0015494378207247803
21 -0.002863101343530833 -0.0011838174332417042 -0.0016566168848765124
22 0.0005571799030618528 -0.0010279899205812076 0.00034585005723423344
23 0.00029158092186673296 -0.0008112131809216062 0.002423605037140901
24 -0.0002006772692595489 0.0015205781633878682 -0.0008147023120921453
25 -0.002707011180290361 -0.0007016510508014599 0.00015191900046479084
26 0.0026194737331563097 0.00031173209919116803 -0.002274542656505964
27 0.0018856804501436778 0.00013273320631340956 0.0004934162195232994
28 0.0013923635329036415 -0.0008777819277566279 0.00047421529593268157
29 -0.00016428097711500156 -0.000704909634628522 -0.001662839360775208
30 -0.00047373987379165187 0.0018399115255821055 0.0006924909506773337
31 -0.0005425202534821003 0.0016791758354476394 -0.00014066560016815172
32 0.0004971614299883755 -0.0008520229320861325 0.001384829119942215
33 0.0008730422973842069 0.001877569167461683 -0.00032531189467485693
34 -0.0009498595592222057 -0.0007448167335518091 -6.455633683795008e-05
35 0.0012369613444479304 -0.000979281363229728 -0.0013588032110567875
36 -0.0010333861937001252 -0.0012217050748549773 0.0016813576031524992
37 -0.0003099828798824925 0.00047243725793946317 -0.0013583015633955736
38 -0.002092387387484698 0.0003256662755722289 -0.0006477088939699704
39 -0.0011887817916553316 0.001352112239103437 -0.0004525669685928144
40 -0.00016405472940530738 -0.000158035878461824 0.0002881249081225331
41 -0.001301920231804408 0.0023804263804809048 0.0026782739205672046
42 -0.003691325068720493 -0.0017497165904842313 -0.0003494743099003497
43 -0.0014942075016724824 0.0007163110457415028 -0.0017460822565607244
44 0.00039918810666106705 -0.0008530664782049992 0.002232805544336113
45 -0.0008211511330388069 -0.002549238540250323 9.243922246273472e-05
46 -0.001131754708057154 0.00023394930377819984 0.003015214807547129
47 0.0014682489421097462 0.00041289221770589914 -0.0018114697925770554
48 -0.0009528705001492551 -0.00168458203615868 -0.00037779933404215196
49 0.001691814524660356 -0.0008082146734330668 2.9802099250601056e-06
50 0.002384840021064076 -5.889246760224124e-05 0.000970841624663063
51 -9.02805076525975e-05 -3.545114164401927e-05 0.00062845461235062
52 0.00010290857886017745 -0.001978032924716038 -0.0022051607021607556
53 -0.0005348841863463366 0.00045860657291656615 -0.0028789114703630303
54 0.0021806649591240962 3.911673641977716e-05 -0.001847763631100276
55 -0.001542868224840135 0.0013723663204357537 -0.000618188718242428
56 -0.0020124737693776725 -0.00023691035767869505 0.00023537133594588475
57 0.0024188127742376547 -0.00046059740594264645 0.0023298085112766695
58 -0.0007592634444746508 0.001361274137051436 0.0008655850271208981
59 -0.00019668108839855612 -0.0007677565838306737 0.0001217944390885507
60 -0.0013011462018627255 0.0018016816597406068 0.0007326511279677335
61 0.0011773265669948593 -0.00047067644515901003 0.00197805826825851
62 0.0013647855269441087 -0.00293702133209519 0.000964665201684691
63 -0.002021179221209801 -1.709600634452565e-05 0.00024045072062263957
64 -0.003019133917526719 0.0009980656515491248 -0.003030020978978653
65 0.0008607291949313454 0.0005830681207595308 -0.0015338674953959432
66 0.0006372081605556782 -0.0006934672192021144 -0.00046646905249651095
67 0.00026369476400977203 -0.00012199151825144827 0.0004274580179823891
68 -0.0011265197808141409 0.0006339675219056102 0.0006438442667639115
69 -0.0013737673580163058 0.00033900302467772356 0.002744773890921935
70 0.0013367708537015677 -0.0013345449667498718 -0.001268164051958339
71 -0.0009555279750152715 -0.0006741738136218148 -0.0034155077720242457
72 -0.0018692755656852555 0.0017800290381825687 -0.0012573143657867644
73 0.0007317480144133008 -0.000459848636242254 -0.0010683885534781324
74 0.0010725027935987732 0.0010487767886576717 -0.002589793799084076
75 -0.00013168951512082763 -0.0003138792573388236 -0.0006805727228214642
76 -0.0006407812170026384 0.0017770196119956199 -7.910854080205996e-05
77 0.0006743358316551827 -0.0009672205463502295 0.0010019651486458674
78 -0.0010926321587789705 -0.002032832862422878 -0.0009504619899641127
79 -0.0008544509423817785 0.0015810594006397257 -0.00012726372777774518
80 -0.0019196119279318376 -0.0009176002597620715 0.0002485718686842564
81 0.0017003994638669139 0.0019520858622874594 0.0009195520502210216
82 6.658898047159738e-05 0.0006006238298868944 -0.0007678432558792476
83 0.000334731290847113 0.0022358868025565064 -0.0012874475239142591
84 -0.0007010129468868183 -0.0005112148371975388 -0.0018059228408815226
85 -0.00030074739228473863 0.0009126987328756635 -0.0023421986055072947
86 0.0017010976293736675 -0.0010284490893176848 0.0006100072616330499
87 0.0013823469589391074 0.0011097062122388402 0.001664761372641437
88 0.0009377947979503319 -0.0005212775876991889 -0.0004579642213278481
89 -0.00076759478786445 0.0007432442343162627 -0.003201402756392542
90 0.0026389410779549638 0.00014300437787804763 0.0006767090037378715
91 -0.0014977871225536209 -0.002348930698840789 -0.000385272322129643
92 -0.00012538996817936651 -0.0010701716731807088 0.002753089768042447
93 0.0008246810225862676 -0.00034726015076108716 -0.001275175175490102
94 -0.0004293357143210024 0.0007393924489753851 0.0006338227713574537
95 -0.0009755366788567392 -0.00019912720437117768 -0.0021626981961293036
96 0.0003147516929222497 -0.003006072700871434 0.0004785061943750426
97 -0.0029792614790563375 -0.0018286107478328816 0.0012187434628199566
98 0.00036109416154640056 0.0010524773078205373 -0.0018850100544313348
99 0.0018922441638557596 -0.0010391411627232439 -0.00017287189221550748
100 0.0005885479743564618 -0.00031264365687017054 0.0016793260908307117
101 0.0008378993617868381 3.685382054820249e-05 -8.486380234242038e-05
102 -0.0011684032832713347 0.0004504643076313501 -0.00048197658055735047
103 0.0015415859242574664 0.002874730475659972 -0.0001621843966331583
104 0.002081774407528033 0.0009491050060756859 0.001275962180462388
105 8.72708503222788e-05 0.0024099024041382196 0.0009527989678098163
106 -0.0006974700660017429 0.000517600977815281 -0.0028870102442986444
107 -0.0005332113289181899 -0.0009430039000471632 0.0011637564335708068
108 0.0009042345242012218 0.00037287590941275094 0.0008805800721462007
109 0.0016574830724020713 0.00039720085580968164 0.00043737191304415036
110 0.001280759327290674 -0.0006971476935155753 0.001861117895373097
111 0.0010535427956824643 0.0011824336910618788 -0.0005819691712793949
112 0.0003305212048680455 0.001744339574663354 0.002701906772842837
113 0.0012520074353607853 -0.00045656660362450107 -0.00022059732952506062
114 -0.00048389299939872435 0.001991570509417718 -0.00023133947989755223
115 -0.0033911090505527393 0.0010966699949109299 0.0010457229688049267
116 -0.00010397580629456058 0.0009614910236021623 0.001445889372628439
117 5.23535296421703e-05 0.0006382042458362593 0.00040478707433736096
118 6.551343907656376e-05 -0.0006288844735610518 0.0009247025291838093
119 0.0006419147548706662 0.0008422540154007972 -6.552501702944328e-05
120 -0.0004916466237744118 0.0009302267229970448 -0.0009012155244195115
121 -1.8738006156994123e-05 -0.00038964150878482355 -0.0010090670434898098
122 0.0032477662643963343 -0.001979958273310082 -0.0014381284319643197
123 -0.002194867785490633 -0.0004451089544937572 0.00035736100284882827
124 -0.0026548841963365617 -0.0007863557855232969 8.395275773069932e-05
125 -7.974923350039767e-05 0.0003493838844888658 0.001145661065928841
126 0.0002497843553295747 -0.00042274316130859154 0.0022232454126907488
127 -0.0008743195900459736 -0.0009642051168319966 -0.0014323992581835433
128 0.0017604953181060987 -8.144818143184616e-05 0.000638637476405838
129 0.0006891246492938847 7.816329934645381e-05 -0.0002474769322333789
130 -2.0645406699780813e-05 -0.0010144792694739722 0.0012416575887269465
131 0.0006915186049472603 -5.855993325257406e-05 0.000136144659675339
132 0.0024215485247175055 -8.186054010106163e-05 0.0003601229649178404
133 0.0007259950642613209 -0.0007774106076425948 -0.0006912057185439134
134 -0.001116542468455647 0.0007696755794402174 0.0007792942090975615
135 -0.0004920557081127796 0.0008858007998419162 0.0007479423241399888
136 -0.0005012505713194001 0.00044855165265256117 -0.0010653861562899413
137 -0.0015972988276927158 0.000141251240687013 0.0009290007493532562
138 0.00015875276865180533 0.0008475928018487253 -0.001314087914594295
139 -0.00022559638553606585 0.0001889542156343371 0.00022152351000879995
140 0.00025380876301510277 8.807739436708577e-05 0.0003383111828861987
141 0.0003187167762421388 -0.00023922581483587537 -0.0002460902336569145
142 -0.000935621945010989 -0.0012641470375991154 -0.0004062391818990685
143 -0.0004488971597088084 0.002364846454055705 -0.00014061611138944125
144 -0.0003180248698981042 7.265205725707629e-05 -0.00031599412986940624
145 -0.0003234841303249978 0.0006804115860086514 0.0005686152842213034
146 -0.001453231640459693 0.0004111060482057282 -0.0007229200249644341
147 0.0005807682362905416 0.0004058557785247627 -0.0025107979940293883
148 -0.0016180944820272862 -0.002055218360612675 -0.000421516948861312
149 0.0025331473248599414 -0.0018289271202864598 0.0014669534733486342
150 0.0019586912124393 0.0009335429308018242 0.0009856721918351252
151 -0.0006660343677552078 0.0003700310863948194 -0.0004448302992843368
152 -8.872788451928975e-05 0.0010804871938822594 0.0002818058800995426
153 0.0014024491499401762 0.0015496491301087694 8.730796495911848e-05
154 1.6249687639964074e-05 0.0004218202677256847 -0.0006757930596276294
155 -0.0029774621454241885 -0.0005200056227022743 0.0011968053214531712
156 -0.00013990025392719417 0.0012757547007834044 0.001074425360566483
157 0.0005104893740329902 -0.0008213556596677153 -0.0006339592271015692
158 -0.0012532031282162077 -5.995187461670418e-05 0.001018135780463706
159 0.0009647046087690717 0.0012913450022692312 -0.0005562616975776095
160 -0.0002148029995318174 0.000575634152679284 0.0004367926791702654
