LAMMPS data file via write_data, version 23 Jun 2022, timestep = 0

160 atoms
3 atom types

0.899084684504396 16.81291531549554 xlo xhi
0.6741955780685764 16.47780442193113 ylo yhi
1.2845901213992421 23.659409878600712 zlo zhi
0.02437023398181872 -0.11285950750956636 -0.1380452108200359 xy xz yz

Masses

1 132.904999
2 126.90447
3 204.199997

Pair Coeffs # lj/cut/coul/long

1 0.0898565 3.52101
2 0.0427844 5.04975
3 0.094278 4.043

Atoms # full

1 0 1 0.85 4.909550651903654 4.579638902201139 4.084086635720669 0 0 0
2 0 1 0.85 4.84934625793848 4.484166028131064 9.64689333023639 0 0 0
3 0 1 0.85 0.9142214755309193 0.7567051361583703 9.719070871224394 0 0 0
4 0 1 0.85 8.81030086698649 8.597053247895953 4.009970362339561 0 0 0
5 0 1 0.85 4.750838159285209 4.527505138196867 15.196905956321402 0 0 0
6 0 1 0.85 4.691473825272489 4.594526865654894 20.79922809602812 0 0 0
7 0 1 0.85 16.676327982805365 16.275282346888773 20.835642943537785 -1 -1 0
8 0 1 0.85 8.821212161875858 8.411655709330931 15.277994210373276 0 0 0
9 0 1 0.85 5.029267797076243 12.56767988285324 4.069661562919215 0 0 0
10 0 1 0.85 5.058266956464249 12.482551809257927 9.595867398102142 0 0 0
11 0 1 0.85 0.9218683652665713 8.482401329357813 9.723493252640942 0 0 0
12 0 1 0.85 8.863233383826403 16.442889142073565 4.2557480175856925 0 0 0
13 0 1 0.85 4.7855136124097735 12.393533052162148 15.268185454534171 0 0 0
14 0 1 0.85 4.717380719428664 12.505185479772251 20.91290379547027 0 0 0
15 0 1 0.85 0.9384957603463471 8.3060615186675 20.830274287959632 0 0 0
16 0 1 0.85 8.815726004589528 16.316960978178795 15.347910224785812 0 0 0
17 0 1 0.85 12.937725123032298 4.637189404487696 4.074046870411033 0 0 0
18 0 1 0.85 12.673795382878964 4.572775423562007 9.73718879137103 0 0 0
19 0 1 0.85 8.890880361534121 16.35465836277393 9.768180314771154 0 -1 0
20 0 1 0.85 0.9170091410092022 8.619485866661968 4.107021699537133 1 0 0
21 0 1 0.85 12.78862705122935 4.641552463392286 15.169949598839239 0 0 0
22 0 1 0.85 12.613175681089679 4.554064346416836 20.86634777826886 0 0 0
23 0 1 0.85 8.702917421377458 16.230605598731824 20.970358818921024 0 -1 0
24 0 1 0.85 16.730802777801 8.487360263742493 15.273122914292465 0 0 0
25 0 1 0.85 12.82842730031348 12.531283572430624 4.020509881753654 0 0 0
26 0 1 0.85 12.971281169791018 12.545382907478402 9.748979997824101 0 0 0
27 0 1 0.85 8.72684205535723 8.449560061063183 9.762133558616146 0 0 0
28 0 1 0.85 16.80305268248474 16.45816910713215 4.078677359642721 0 0 0
29 0 1 0.85 12.81027555532034 12.524177813423108 15.206862406876091 0 0 0
30 0 1 0.85 12.779032540649693 12.286182856268349 20.88985667065491 0 0 0
31 0 1 0.85 8.794530428460247 8.513226502309875 20.85739252977025 0 0 0
32 0 1 0.85 16.608831597312065 0.7057214389393629 15.33670479365668 0 1 0
33 0 2 -0.85 0.9851435719786874 4.654174766649275 4.0672976754907 0 0 0
34 0 2 -0.85 8.713114941651842 4.463648152588437 9.626538304335435 0 0 0
35 0 2 -0.85 4.87624977091593 0.6436799306849134 9.741281322342791 0 0 0
36 0 2 -0.85 4.946786993768052 8.613341135699157 4.097795721076617 0 0 0
37 0 2 -0.85 2.9548742830761032 6.466881246078272 12.281490279908672 0 0 0
38 0 2 -0.85 6.880228754148126 2.713023257391446 1.4200271091552077 0 0 0
39 0 2 -0.85 2.7304589019916268 2.6008002681633346 23.617914260603282 0 0 -1
40 0 2 -0.85 6.773909311041396 6.484030723959801 12.35702523893137 0 0 0
41 0 2 -0.85 6.799595212992813 2.6028409419868193 6.858015671767875 0 0 0
42 0 2 -0.85 2.8950474086398534 6.514957779416796 7.005675491735861 0 0 0
43 0 2 -0.85 6.862798618450296 6.533437769009485 6.797678370215458 0 0 0
44 0 2 -0.85 2.860216341748726 2.473774226427952 6.780383997717927 0 0 0
45 0 2 -0.85 0.9394895002578556 4.500268120947251 15.229712669526029 0 0 0
46 0 2 -0.85 8.66220298786306 4.359576874785502 20.843092468614753 0 0 0
47 0 2 -0.85 4.711929715697154 16.2867802988892 20.89838312278673 0 -1 0
48 0 2 -0.85 4.701099562575393 8.36972391816357 15.147541845748258 0 0 0
49 0 2 -0.85 2.788636417139477 6.460852432465641 23.635042907528266 0 0 0
50 0 2 -0.85 6.827298148444045 2.5480002562055626 12.583504372907393 0 0 0
51 0 2 -0.85 2.853544333449949 2.6363675645004676 12.522741063735461 0 0 0
52 0 2 -0.85 6.916306131923438 6.605928654727391 1.2869858688854652 0 0 1
53 0 2 -0.85 6.706232195086338 2.526013700862539 17.92783672236863 0 0 0
54 0 2 -0.85 2.757806961489111 6.5620186271997865 17.984253374963238 0 0 0
55 0 2 -0.85 6.688807160256909 6.511126455328905 18.17961800762828 0 0 0
56 0 2 -0.85 2.9033424813878788 2.6443412781698274 17.996133897763432 0 0 0
57 0 2 -0.85 0.9851418892714353 12.49569694090972 4.029587982163091 0 0 0
58 0 2 -0.85 8.906888047154567 12.405589444909511 9.775917042978277 0 0 0
59 0 2 -0.85 4.780829480210152 8.599979196288347 9.592615861608113 0 0 0
60 0 2 -0.85 4.942262247833776 16.42396476227259 4.190664960415554 0 0 0
61 0 2 -0.85 2.8921790382837727 14.402845168287467 12.533886584874425 0 0 0
62 0 2 -0.85 6.799782624854728 10.584193711611496 1.302515329278982 0 0 0
63 0 2 -0.85 2.8202997162715846 10.440107994124633 23.516109150258508 0 0 -1
64 0 2 -0.85 6.774425929883535 14.379712835041675 12.36271326474907 0 0 0
65 0 2 -0.85 6.887429191224578 10.450373970821982 6.861713253807523 0 0 0
66 0 2 -0.85 3.0226788299056366 14.402819301937495 7.000997571805155 0 0 0
67 0 2 -0.85 6.9536240169460095 14.418793390245185 6.897570201560441 0 0 0
68 0 2 -0.85 2.8473272053866157 10.576120441652751 6.829222367808467 0 0 0
69 0 2 -0.85 0.8765152852075642 12.584145118165745 15.213646111618479 0 0 0
70 0 2 -0.85 8.764068348524932 12.342523623159735 20.910305854358658 0 0 0
71 0 2 -0.85 4.845612578298636 8.609517100052175 20.790980586396735 0 0 0
72 0 2 -0.85 4.739515640049034 0.6381489520067298 15.257281239914034 0 1 0
73 0 2 -0.85 2.8056983049989594 14.398600884203807 23.602875021571553 0 0 0
74 0 2 -0.85 6.823081236757798 10.376812614341718 12.62986614153784 0 0 0
75 0 2 -0.85 2.8981201754039456 10.583729878134845 12.503693360953186 0 0 0
76 0 2 -0.85 6.892352357189435 14.563646184661529 1.3529364024461124 0 0 1
77 0 2 -0.85 6.818273232958114 10.379500083580945 18.051641165776584 0 0 0
78 0 2 -0.85 2.7302302979666937 14.424309678755211 18.015310390290995 0 0 0
79 0 2 -0.85 6.769833921543716 14.377930519180886 18.00516514229684 0 0 0
80 0 2 -0.85 2.7343065951819328 10.534215728243085 18.016428462632426 0 0 0
81 0 2 -0.85 8.94931412810117 4.631545878278508 4.072159431489819 0 0 0
82 0 2 -0.85 16.617163409874156 4.489761338127734 9.630834678889347 0 0 0
83 0 2 -0.85 12.802240441965033 0.7202986121916147 9.709476794319324 0 0 0
84 0 2 -0.85 12.694442510096472 8.658927137309597 4.063149325990427 0 0 0
85 0 2 -0.85 10.69929403222676 6.595509280079839 12.445551133239707 0 0 0
86 0 2 -0.85 14.800528901417154 2.619353014142639 1.3855013524208284 0 0 0
87 0 2 -0.85 10.83009562347565 2.6045632076896132 1.4237437241753663 0 0 0
88 0 2 -0.85 14.800921897077453 6.5499252057985275 12.493163432309332 0 0 0
89 0 2 -0.85 14.862926707893065 2.628072747147568 6.746779732565608 0 0 0
90 0 2 -0.85 10.961559847805422 6.452701594087077 7.003908977158093 0 0 0
91 0 2 -0.85 14.997890181064305 6.708737268218548 6.931443305530311 0 0 0
92 0 2 -0.85 10.806211656983022 2.521974960854861 6.874093922502319 0 0 0
93 0 2 -0.85 8.685629289871606 4.591357027795323 15.223832958673182 0 0 0
94 0 2 -0.85 16.63550113981506 4.417708323358619 20.84528592770777 0 0 0
95 0 2 -0.85 12.752352456246227 0.7124599610035186 20.92080365496986 0 0 0
96 0 2 -0.85 12.66065440208334 8.444390145666771 15.235240861177957 0 0 0
97 0 2 -0.85 10.703656703859032 6.499127645428627 23.578962800890515 0 0 0
98 0 2 -0.85 14.640963581002474 2.7667815320210685 12.57099653871838 0 0 0
99 0 2 -0.85 10.854337781067494 2.675887805277799 12.555546567281311 0 0 0
100 0 2 -0.85 14.813675667449184 6.62753760226137 1.3206983644426575 0 0 1
101 0 2 -0.85 14.709483372020237 2.5113278266710903 18.05936267411596 0 0 0
102 0 2 -0.85 10.727053088751646 6.419962322441286 18.151546490443053 0 0 0
103 0 2 -0.85 14.77330917362556 6.518833965002017 17.936024983881477 0 0 0
104 0 2 -0.85 10.740174438709964 2.5879778520491468 18.030135710648466 0 0 0
105 0 2 -0.85 8.985606792649406 12.630313866121863 4.068580766438476 0 0 0
106 0 2 -0.85 16.776108688885863 12.453578340239616 9.610464992158125 0 0 0
107 0 2 -0.85 12.876926983050035 8.49034254016609 9.694155902135478 0 0 0
108 0 2 -0.85 12.748970979317178 16.393201488748815 4.140436863728598 0 0 0
109 0 2 -0.85 10.80905388467549 14.489760295947203 12.490175653979978 0 0 0
110 0 2 -0.85 14.844575664675487 10.514673812919735 1.387841783551619 0 0 0
111 0 2 -0.85 10.751409979650361 10.448274703164275 23.5141729959555 0 0 -1
112 0 2 -0.85 14.816252371208781 14.543491089460499 12.481606655278092 0 0 0
113 0 2 -0.85 14.763745245521058 10.570345776154584 6.830606668165048 0 0 0
114 0 2 -0.85 10.904977174022724 14.389729101100546 6.9663826749558995 0 0 0
115 0 2 -0.85 14.945516566070756 14.54002191935194 7.010548929393117 0 0 0
116 0 2 -0.85 10.834196846253432 10.452697515030252 7.077346847712106 0 0 0
117 0 2 -0.85 9.073109263372555 12.352015486482538 15.319792396847289 0 0 0
118 0 2 -0.85 16.629643363487908 12.449127500670153 20.814583280872455 0 0 0
119 0 2 -0.85 12.963291038077255 8.277821915138363 20.892195202543682 0 0 0
120 0 2 -0.85 12.658042889267495 0.6352445476981278 15.23587314297179 0 1 0
121 0 2 -0.85 10.704028299021795 14.394705053135885 23.613583847410197 0 0 0
122 0 2 -0.85 14.887725617063866 10.397933940923295 12.473522924989766 0 0 0
123 0 2 -0.85 10.982059565786344 10.598250278371003 12.483980371202577 0 0 0
124 0 2 -0.85 14.701174581279464 14.374699804949044 23.61476601662833 0 0 0
125 0 2 -0.85 14.627302449017703 10.451063911570685 18.012752950684835 0 0 0
126 0 2 -0.85 10.791405880158388 14.300426718789259 18.332162075253503 0 0 0
127 0 2 -0.85 14.665651473407957 14.34273414245602 18.112979898214963 0 0 0
128 0 2 -0.85 10.725881934641547 10.355011706828924 18.125325095839663 0 0 0
129 0 3 1.7 16.584690349341802 4.5648747392952 23.630872623783798 -1 0 -1
130 0 3 1.7 4.871539588475335 0.7550128708564758 1.4034895514805028 0 0 0
131 0 3 1.7 0.9130816821382566 4.536863991675734 6.85754559990299 0 0 0
132 0 3 1.7 4.888365578541249 16.36101866251385 6.916021183104004 0 -1 0
133 0 3 1.7 16.741837455896352 4.57446420619586 12.381286935511303 -1 0 0
134 0 3 1.7 4.820565865896915 16.39133245847741 12.470403784175215 0 -1 0
135 0 3 1.7 0.8347201246423428 4.49497077121685 17.98332980411393 0 0 0
136 0 3 1.7 4.757789242646265 0.6045246361530296 18.140141981719175 0 0 0
137 0 3 1.7 0.849930276177382 12.421641772013315 23.655558800979207 0 0 -1
138 0 3 1.7 4.81559157666419 8.470139415826486 23.65025279995362 0 0 -1
139 0 3 1.7 0.8993609213445801 12.537218459397756 6.792402518753542 0 0 0
140 0 3 1.7 4.820190357263292 8.54557634557707 6.804244781337864 0 0 0
141 0 3 1.7 0.8761781257918665 12.432609411246306 12.41168769834976 0 0 0
142 0 3 1.7 4.785460602702266 8.52921674880183 12.309156765639386 0 0 0
143 0 3 1.7 16.641178727569535 12.418856102653917 18.003741768464543 -1 0 0
144 0 3 1.7 4.717935799772393 8.51276710370618 17.88424204892541 0 0 0
145 0 3 1.7 8.858885328815285 4.460484552584636 23.60241988626702 0 0 -1
146 0 3 1.7 12.872512868643721 16.46234613267634 1.3233244368690784 0 -1 0
147 0 3 1.7 8.928928697231445 4.543562053104092 6.843638621941684 0 0 0
148 0 3 1.7 12.915031309812882 0.6405676007590405 6.946317574271838 0 0 0
149 0 3 1.7 8.773112734074292 4.47984273903266 12.462265459522914 0 0 0
150 0 3 1.7 12.819539260485938 0.6541755566191977 12.441198650522685 0 0 0
151 0 3 1.7 8.721244667452707 4.553136550137508 18.010636055255066 0 0 0
152 0 3 1.7 12.716740483831071 0.5870420362595414 18.132862555134796 0 0 0
153 0 3 1.7 8.75762730333888 12.37000717683459 23.659186628940247 0 0 -1
154 0 3 1.7 12.763912708098196 8.602095338912116 1.2922542527953484 0 0 0
155 0 3 1.7 8.907147191558295 12.497626276331232 6.874355166780902 0 0 0
156 0 3 1.7 12.852326063364183 8.534604333489781 6.959874163038491 0 0 0
157 0 3 1.7 8.802006745864649 12.390771144719391 12.578323804314108 0 0 0
158 0 3 1.7 12.800454290536132 8.471458066247056 12.459345937680965 0 0 0
159 0 3 1.7 8.7719168813156 12.415506887685018 18.117541020762467 0 0 0
160 0 3 1.7 12.697541044639223 8.400392735554407 18.05645970433612 0 0 0

Velocities

1 -0.0012682517351826808 0.003199034009738412 -0.0021484841522474876
2 0.00027088198608625865 -0.0019266753408962005 -0.00023285995209485868
3 -0.0006214661274925742 -0.0010394896489335894 -0.0016915258473397855
4 0.0014467033477462018 -0.00019206512654717524 0.0007981597267295501
5 9.003588140387037e-05 0.00028441391128030877 -0.0010880795720837543
6 0.00015326990370903194 0.0018582991787309746 -0.002692360413703618
7 0.001685918571749078 0.0008720759644635142 -0.0002479567441577321
8 -0.0018365531859674913 -0.0008174344379265063 0.0005524434758226863
9 0.001500526552315231 0.0010057141181691678 -0.0011580843573752008
10 -0.0007404884981304515 -0.0007665076708077478 -0.00041063785743616763
11 0.0011011230104709618 0.001261837863367068 -0.000864116305192717
12 0.0005882361195337697 0.0010819503801904958 -0.0030896905751689467
13 -0.0016663074620051747 0.005162255906868417 0.0007877579576599431
14 -0.0004882994896230029 0.0016026923772862744 0.002352019038928366
15 0.00024369012195348702 0.0012148821802852447 -0.0006533360571789284
16 -0.0004653147597677576 -8.115160809008006e-05 0.0013706164419791363
17 -0.00038826749332056097 -0.00125550439310564 -0.0019198399989435214
18 0.0003269359618472655 -0.0006159887933845014 0.0008265164827173621
19 -0.00019578044304041056 -1.8622762723863037e-05 -0.00010378644032875185
20 -0.0015049606161280109 0.0013693307457529704 -0.0026145016732973137
21 4.0397114455082405e-06 -0.0003671267013515486 -0.0005520578092384856
22 0.00018106343271567836 -0.0012317140037769654 -0.0012987007955849842
23 0.0023694505971266094 -0.00011906435345003507 -0.0014707832755356386
24 0.0009370181917338313 0.000362300288049648 -0.0005601618531554201
25 -0.0019346870242408195 0.0011813943841611318 -0.0008630909943674113
26 -0.0005945155293983538 -0.0016515129141433326 -0.0006743123333714466
27 0.0019810603947504487 0.001351152493109169 0.00034489090123804013
28 -0.0035874366318683426 -0.0001864291005391477 0.001039825709018348
29 0.0009250489424412843 0.0007142175716994154 0.001414382185627958
30 -0.0003250120193540204 -0.002978031965560836 0.0003301789947053412
31 -0.0010527268530634605 -7.708770254444389e-05 9.414961873520812e-05
32 0.0029292692170556503 -0.0003125473799404029 0.0003830667207029457
33 -0.0027641270629690565 0.0006514048461424607 -3.669633130222056e-05
34 -0.0005515261479056642 0.00045764253702192863 -0.0008908370004111747
35 0.0003749299065091197 0.001578835186397868 -0.0008326409257651731
36 0.0023167149819812126 0.0015152745833466234 0.0005064410508848335
37 -0.0022378041225960895 -0.00011446637160679197 -0.00022005279028879308
38 0.0016418976170151363 0.0016782050820137251 -0.0010486071072027911
39 -3.269823349208266e-05 0.0004925084509249753 0.0015187447369742573
40 -0.0005262249117775163 0.0012109692023838119 0.0020726347967263644
41 0.000560196331830618 0.0007890768640229295 0.00011242958204646244
42 0.00037229738528919573 -0.0016229828130993672 -0.001188425786457446
43 -0.0017877316726190762 0.0012297106431282702 0.00045964630869739764
44 0.0006643219427283891 0.0006167195249994335 -0.0006672827138376312
45 0.0017091447958332243 -0.0017856849133677727 -0.0018984748085447937
46 -0.0017797069442926845 0.0009833563054655724 -0.0006432522952345145
47 0.00026879559464639913 -0.00018880818187828636 -0.00022916526370936685
48 0.0015246352152508916 0.0003003284832442382 -0.0024701435604820793
49 9.968565324118843e-05 0.0022679522439962604 0.0025453077200699686
50 0.00043843429981974355 0.0004754884925245593 0.00025754249671183755
51 0.0015565113135588224 0.0009915586624931357 -0.0008504444710575808
52 0.0006195257671936981 0.0008912996125674214 -0.0008170535099078807
53 0.0011578682953320226 0.0005944024566840469 0.002375142657107256
54 -0.0006251499898679091 -0.0004802087692629108 0.0010986424090162344
55 -0.0006906319357007235 0.001714026025793765 0.00040868713084527084
56 -0.0004801381952507672 -0.0016915299364404011 0.0005457797302437496
57 0.0026016849583483776 -6.984601474719401e-05 0.0021230677391402197
58 -0.0009835800163548118 -0.00028060393921656507 -0.0006861176530283733
59 -0.004000814599570247 -0.0029247665845714066 -0.0008362790907896167
60 -0.001993305926925251 0.0015447373135421575 -0.0014130984531013104
61 -0.0022421278815460658 -0.001562107413878415 -0.00030838877142403044
62 0.0014639187776956906 -0.0024409573032004124 -0.0008059532078656288
63 0.000575229068615934 0.00018885650038970355 -0.0006048285671792032
64 0.0004931810179926748 -0.0028766912811640168 9.292874374266117e-05
65 0.0005149197310611174 0.002916032157256614 0.0032497549328914348
66 0.0002913688778963294 -0.0023779399120073316 0.0011140561490448912
67 -0.0012687744114975828 -0.0005234229903379356 0.0010013249852681967
68 -0.0008923737130615687 -0.0010609143057729354 -0.00012110615126287247
69 0.002406484110483631 0.00022346203928310773 0.001495167960811757
70 -0.0008430568946092523 -0.00047384697934356945 0.003133617435293502
71 0.0007711534840732251 -0.0007118228801292949 -4.257602172484075e-06
72 0.001693222323833431 0.000590227866084398 -0.0013072928822159932
73 -0.0013737022973848865 -0.0007543734727438417 5.97626002270299e-05
74 0.0004856593436289924 0.002858438804084496 0.0007798034030625751
75 -0.0016395580036591471 -0.00035661639764430396 0.001273273113634868
76 0.0010701640702217253 -0.001552926220507135 0.000668748818437384
77 0.001811655512833316 0.0017810549925673627 -0.001771416063779927
78 0.0004172458523679481 -0.0004051932312574199 -0.0006436383716136177
79 -5.810217683032068e-05 -0.004048653385693418 0.0008580463696995586
80 0.00400398112977788 0.0011326106693007518 -0.0008103915060865702
81 0.001346935002074708 -0.0007511993171535876 -0.0014266840199470487
82 0.00019532212828860497 -0.0008425707882369955 0.0005102912511635278
83 0.0003212342341968412 7.869707067188986e-05 0.0004571551116556093
84 -0.0009896314898234795 0.000771977007083269 0.0006350232255328888
85 -0.001457857727629695 -0.0005870552993084193 -0.0017757768698780465
86 -0.0008237740381129244 -0.00161892087378598 1.6802932821440408e-05
87 -0.002658250970803683 -0.0017473492966637281 -0.0008590092639506328
88 0.0005857095944453032 0.0009380825670537159 0.0015066640117496696
89 -0.0004074391245573841 1.8859480001829764e-05 0.0016151298547791724
90 0.0011004760065657742 0.0012220330036500173 0.0017586374710822545
91 -0.000974686931516492 0.001340606449809554 0.00040070707688328157
92 -0.0016591596910909305 0.0008011795209771704 -0.000757161480752519
93 0.004519473381269715 6.976132313179381e-05 0.00015121103447683228
94 0.0008730146250704284 -0.0007627923533547835 0.00037666990479612685
95 -0.00029091421383698455 8.367242914572431e-05 0.0018530538571037705
96 -0.0005194055138596306 -0.0007059301292341361 0.001512819366553047
97 0.0002669556116690493 -0.0022995856609451144 -0.000867920811070495
98 0.00035499118877916437 0.0009674070088468805 -0.0015139515310495682
99 0.0009652699811355456 -0.0007459932575756143 -0.001466639541475562
100 0.0004538057613818735 0.0016839045969429815 0.0027452077159190276
101 -0.000777856243036595 -0.0025622308623314827 0.0012111510102012103
102 0.0009196371728429349 -0.00014564569127049773 0.0005391601846590135
103 -0.0012492991016660037 -0.0007602700854821482 0.0017513914780407157
104 0.0011726047263660572 0.0003907907472552768 -0.0014134919034007392
105 -0.0004978757238317051 0.00031634345394742166 -0.0011879014689513522
106 0.0016409270995986019 -0.001148540424528499 -0.0027493632731952003
107 0.0006677010568272228 4.168980187822077e-05 0.00023376210433467124
108 0.0004482464205512155 0.0008988228258872095 -0.0007713171883949052
109 -0.0016910492637499195 0.0026786726019305874 0.0004074648816631115
110 -2.187374951122725e-06 0.0018337779274235756 -0.0010711473230804673
111 -0.001750117275790199 0.001558476411932777 -0.0012869466461208705
112 -0.0014206728164980966 -4.7891869753430294e-05 0.0013078584873837242
113 -0.00035822531821135467 -0.0007499137156648006 -0.00225339529047776
114 -0.00020284301264037724 -0.0008447493115355336 0.0044838390323858135
115 0.0006965405247693066 0.0015503775517779806 -0.0006270502715097811
116 -0.0018986723116170454 -3.736936498201066e-05 -0.00195728721547379
117 0.0007029289657461407 -5.4992659361566145e-05 0.001724633046014826
118 0.0020327967062037425 -0.00023031139660515957 0.0005933490019493826
119 -0.0021723461277483066 -0.0007806595602444116 -0.0005128634893546644
120 -0.0011760115579007074 -0.002678521594551834 -0.0008314060100413548
121 8.6777614196509e-05 0.0005718599649541813 9.177382544369474e-05
122 -0.0001757504770546153 -2.5384953512840763e-05 -0.0018855872747833968
123 0.00105957654391121 0.0015792644706066254 0.0009619566686559992
124 0.001237980091145976 -0.0024441349019151885 -0.002801775209549163
125 0.0009769612438238462 -0.0018757230046700067 -0.0016587435171564657
126 0.0011140102547118826 -0.0016700080381703794 -0.000318515196229523
127 -0.003470509986162678 0.0017516356368480956 -0.001174410987896369
128 -0.0009868295710876935 -0.0002700209951772427 -0.00041771942127506175
129 0.0005246384756700872 0.0003238237475738073 -0.0016832729314290927
130 -0.0006286975900032397 0.00042664487439594503 0.00106951741261198
131 -0.0012565565951356433 -0.0013683059048905208 0.0022946634291766874
132 -0.000931324674195825 0.0017015365883570072 0.0012443511598753455
133 0.0001926961122227122 -0.003367137215651856 -0.0007813167559277616
134 0.000600735149688175 -0.0009081121492505193 0.0005642058745405487
135 -0.0003711363752954147 0.0005000995386988153 -0.00017345025463062368
136 0.0017913073388395348 -0.0007868188404182849 3.675577414895297e-05
137 0.002233471744454154 -0.00021262764312865738 -0.0002150738349127242
138 0.0021060310388632893 -0.0002309939986724717 0.0007621292565637999
139 -0.00033718160773768893 -0.000544691282643358 -0.00019947296838906722
140 -0.000756368936742522 -4.755104123977962e-05 0.002072438666371813
141 -0.0003423967937338882 0.0009802047400691743 -0.00014726501522574785
142 0.00024074117917999855 0.0007570200867397969 -0.0007748201173100703
143 -0.00036923080174037945 5.184077802033994e-05 0.000558691070712699
144 -0.0008669976034227606 0.0002251890490433867 0.0006796430210898434
145 -0.0016411413723683174 -0.0004833020017424279 0.0006333540024950316
146 0.0009728465399367888 -0.0010193030811795475 -0.000431699449490269
147 -0.0014717370251398443 -0.001674791660964788 0.0007910253901351059
148 0.0001933016013902344 0.0013319901265702178 -0.0010657157600977931
149 -0.0006480913082081642 0.00036560895460886614 -0.0001986824253836047
150 -0.0014181570410471487 -0.00029584324403182503 0.0005214039764182987
151 0.00037473291285575823 0.0005245851777350523 6.800278794741434e-05
152 0.0007822135639766508 0.0001585423942130683 -0.0009913181517349433
153 -0.0012492446556240197 0.0004886356877856682 -0.000270990975633393
154 0.00023747627552908758 0.004264302474181397 -0.00033430691083974996
155 -0.0022134703709080156 -0.0020626956489386843 0.000847936262301454
156 0.00044370730192758894 0.0006879716122292558 0.0006779135831476164
157 0.0026655344503522496 -0.00023216961101276426 0.002359815043278781
158 -0.0010092326731984582 -0.0021574187959957666 0.0006757495862412109
159 0.0008465008151439076 -0.0001859148293669394 -0.0005631233538966278
160 0.0004788205514848889 -0.0005877912443417628 -7.232209024651194e-05
