data.CPI (written by ASE) 

20 	 atoms 
3  atom types
0.0      8.8559999999999999  xlo xhi
0.0      8.5760000000000005  ylo yhi
0.0                  12.472  zlo zhi
                      0                       0                       0  xy xz yz


Atoms 

     1   0   1  0.86               4.0733172       4.331651840000001      3.1179999999999999
     2   0   1  0.86       4.782682799999999      4.2443481599999995      9.3539999999999992
     3   0   1  0.86     0.35468279999999974    0.043651840000000337      9.3539999999999992
     4   0   1  0.86      8.5013172000000008      8.5323481599999997      3.1179999999999999
     5   0   2 -0.57    0.010007279999999999      4.8198835200000003      3.1179999999999999
     6   0   2 -0.57      8.8459927199999999      3.7561164800000006      9.3539999999999992
     7   0   2 -0.57              4.41799272     0.53188351999999972      9.3539999999999992
     8   0   2 -0.57      4.4380072799999999      8.0441164800000013      3.1179999999999999
     9   0   2 -0.57      2.7044452799999998      5.9801305600000001             12.02587656
    10   0   2 -0.57              6.15155472      2.5958694400000004     0.44612344000000004
    11   0   2 -0.57      1.7235547200000001       1.692130559999999     0.44612344000000004
    12   0   2 -0.57      7.1324452799999998      6.8838694400000007             12.02587656
    13   0   2 -0.57              6.15155472      2.5958694400000004      5.7898765599999997
    14   0   2 -0.57      2.7044452799999998      5.9801305600000001      6.6821234399999989
    15   0   2 -0.57      7.1324452799999998      6.8838694400000007      6.6821234399999989
    16   0   2 -0.57      1.7235547200000001       1.692130559999999      5.7898765599999997
    17   0   3  0.85                       0      4.2880000000000003                       0
    18   0   3  0.85      4.4279999999999999                       0                       0
    19   0   3  0.85                       0      4.2880000000000003      6.2359999999999998
    20   0   3  0.85      4.4279999999999999                       0      6.2359999999999998
