LAMMPS data file via write_data, version 23 Jun 2022, timestep = 10000

160 atoms
3 atom types

0.6871656192560127 17.024834380743982 xlo xhi
0.48067440234075814 16.671325597659244 ylo yhi
0.8334129943287918 24.110587005671206 zlo zhi
0 0 0 xy xz yz

Masses

1 132.904999
2 126.90447
3 204.199997

Pair Coeffs # lj/cut/coul/long

1 0.0898565 3.52101
2 0.0427844 5.04975
3 0.094278 4.043

Atoms # full

1 0 1 0.75 4.671408662420444 4.851543401481234 3.7348377350007174 0 0 0
2 0 1 0.75 4.7421388275835445 4.669456062982094 9.672488879354416 0 0 0
3 0 1 0.75 0.8725549936049185 0.6783704403469408 9.413154790294891 0 0 0
4 0 1 0.75 8.650244249110433 8.838449777724453 3.8221037778540485 0 0 0
5 0 1 0.75 4.623253641904897 4.364635577313524 15.391369528150804 0 0 0
6 0 1 0.75 4.86220333001348 4.603860226984569 20.96427383216735 0 0 0
7 0 1 0.75 1.0705429882700181 16.498771036800083 21.235938008460217 0 -1 0
8 0 1 0.75 8.832411215936286 8.753435034132973 15.284876208996428 0 0 0
9 0 1 0.75 4.559406170448161 12.525854507523182 3.6163028598543416 0 0 0
10 0 1 0.75 4.965579750564117 12.91982285441993 9.549276496814711 0 0 0
11 0 1 0.75 0.7678738623310181 8.531971025495817 9.597148945801502 0 0 0
12 0 1 0.75 8.570419945468593 16.49094673990321 3.7331117475927913 0 0 0
13 0 1 0.75 4.764858742218248 12.704689628746637 15.259317642597717 0 0 0
14 0 1 0.75 4.8181035562430985 12.26739215094859 21.179155184990012 0 0 0
15 0 1 0.75 0.742501000078997 8.830414378029833 21.643854625029068 0 0 0
16 0 1 0.75 8.82956559633426 0.5732720307858653 15.421148936085862 0 1 0
17 0 1 0.75 12.659490091870333 4.102048223208629 3.7394704583517098 0 0 0
18 0 1 0.75 13.151319882211416 4.438785856378351 9.447431150626032 0 0 0
19 0 1 0.75 8.799707074074291 0.6834523918462426 9.475354467782639 0 0 0
20 0 1 0.75 16.871908744951526 8.465847296042318 3.9159330734338065 0 0 0
21 0 1 0.75 12.609653148680042 4.422083097667275 15.453740814010096 0 0 0
22 0 1 0.75 13.214833649091439 4.254132670889812 21.17123475181519 0 0 0
23 0 1 0.75 8.811171363015454 0.48257982356728063 21.353938619100656 0 0 0
24 0 1 0.75 0.6924363968956911 8.224151512348067 15.434854034184356 1 0 0
25 0 1 0.75 12.737733977902788 12.695138315388492 3.4678352689520318 0 0 0
26 0 1 0.75 13.149004235969606 12.822267429313898 9.436522642234642 0 0 0
27 0 1 0.75 9.012433375617064 8.625156624716325 9.5445704402482 0 0 0
28 0 1 0.75 16.776510842710735 0.8739106652760653 3.714064150728638 0 1 0
29 0 1 0.75 12.970953439602635 12.801911799069607 15.312629459624349 0 0 0
30 0 1 0.75 13.272185768788113 12.352798653259207 20.9730131927835 0 0 0
31 0 1 0.75 8.860282601256781 8.572142523047267 21.180708212214423 0 0 0
32 0 1 0.75 16.790697723996978 0.5424193159662086 15.374033397934168 0 1 0
33 0 2 -0.75 0.7107637691068127 4.9917619034284435 3.835532629109476 0 0 0
34 0 2 -0.75 8.549716553757056 4.2211008822365965 9.485969737320373 0 0 0
35 0 2 -0.75 4.576248979809286 1.1199989237933348 9.445883335122035 0 0 0
36 0 2 -0.75 5.027896657151046 8.348946706436543 3.766522325562316 0 0 0
37 0 2 -0.75 3.3008990386326014 6.0418575959940615 12.68140728716106 0 0 0
38 0 2 -0.75 6.393240730125513 2.843276191827848 1.4175735969981855 0 0 0
39 0 2 -0.75 2.3536903266528983 2.009621597756029 1.0430455129070189 0 0 0
40 0 2 -0.75 7.277672521348204 7.109318353065035 12.155214890524535 0 0 0
41 0 2 -0.75 6.584516084312076 2.804122537109159 6.2986793210175716 0 0 0
42 0 2 -0.75 3.097658923390544 6.2628882616823205 6.732520217227765 0 0 0
43 0 2 -0.75 7.034715477433831 6.974392410700284 6.9393712723554835 0 0 0
44 0 2 -0.75 2.4738044060835866 2.116527747159786 6.2142547971619555 0 0 0
45 0 2 -0.75 16.97403763525139 4.546545267346516 15.537507043255237 -1 0 0
46 0 2 -0.75 8.600656657740984 3.956904004640934 21.200082442686405 0 0 0
47 0 2 -0.75 4.998692524103945 0.8636110630434483 21.13672677587867 0 0 0
48 0 2 -0.75 4.762211302453931 8.396632780661879 15.476531648264144 0 0 0
49 0 2 -0.75 3.208734820758618 6.140740468711551 23.918865260983637 0 0 0
50 0 2 -0.75 6.3344972308062495 3.0179625870064117 12.630918664857091 0 0 0
51 0 2 -0.75 2.109557090601445 2.137260336400408 12.539873804569899 0 0 0
52 0 2 -0.75 7.2648365098167105 6.948805083104037 23.750899319527033 0 0 0
53 0 2 -0.75 6.363516949176469 2.8950142195373987 17.860846289881167 0 0 0
54 0 2 -0.75 3.0716905311788127 6.023876530724991 18.225130600121695 0 0 0
55 0 2 -0.75 7.046923158002834 6.844415170552781 18.614467402975084 0 0 0
56 0 2 -0.75 2.130465743141673 1.860319973387321 18.0891275642518 0 0 0
57 0 2 -0.75 0.8138282443350662 13.26697039803914 3.8254201993602117 0 0 0
58 0 2 -0.75 8.94343284977544 12.332947305860461 9.531521384047082 0 0 0
59 0 2 -0.75 4.662365707969195 8.870330133471557 9.569706694180395 0 0 0
60 0 2 -0.75 4.8641483745306076 16.028174908121244 3.8459640837866287 0 0 0
61 0 2 -0.75 2.982084609538855 14.318901211927903 12.27902255815104 0 0 0
62 0 2 -0.75 6.4085278570628335 10.96383432232976 1.1088794085130222 0 0 0
63 0 2 -0.75 2.501456354311226 10.248347756723266 1.3988073815439317 0 0 0
64 0 2 -0.75 6.920094652908705 15.060665999826421 12.09594272415349 0 0 0
65 0 2 -0.75 6.3689059396842325 11.1334430356243 6.386362593355605 0 0 0
66 0 2 -0.75 3.0069555522313696 14.39042635977152 6.902024669886066 0 0 0
67 0 2 -0.75 7.149281410791006 14.908858166611124 7.195857026970063 0 0 0
68 0 2 -0.75 2.317790442516206 10.32660459946337 6.137029439897893 0 0 0
69 0 2 -0.75 0.9955130621428241 12.827666219823966 15.397709819437202 0 0 0
70 0 2 -0.75 8.691469350868257 12.26000286301251 21.04246686904131 0 0 0
71 0 2 -0.75 4.604033528978916 8.822849184087525 21.285406315712034 0 0 0
72 0 2 -0.75 4.652571747317145 16.562656604436683 15.432013029711916 0 0 0
73 0 2 -0.75 3.3019988746208515 14.176409448794303 23.721033538365027 0 0 0
74 0 2 -0.75 6.317204435393649 11.041846712223943 12.538473553573445 0 0 0
75 0 2 -0.75 2.22832768433981 9.98612163272207 12.726448639353427 0 0 0
76 0 2 -0.75 7.279924753333824 15.11943783429317 23.975486584253225 0 0 0
77 0 2 -0.75 6.4876123659874825 10.93129813443873 17.979141323942795 0 0 0
78 0 2 -0.75 3.3894226392935685 14.102916095014958 18.52439816782791 0 0 0
79 0 2 -0.75 7.229287717736227 14.902215414982054 18.283449593062738 0 0 0
80 0 2 -0.75 2.244743378319374 10.066646717062023 18.34553465442315 0 0 0
81 0 2 -0.75 8.915804774816378 5.113919632859813 3.673564854970947 0 0 0
82 0 2 -0.75 0.7753474979478898 4.559877147874269 9.652320208517429 1 0 0
83 0 2 -0.75 12.50735878534558 0.9030411956461866 9.436024206807458 0 0 0
84 0 2 -0.75 12.904288982207312 7.847501305585011 3.7384217765273546 0 0 0
85 0 2 -0.75 11.351200695817997 6.127565434017169 12.243720443866016 0 0 0
86 0 2 -0.75 14.669431377513607 2.826442658029215 1.1837895693915328 0 0 0
87 0 2 -0.75 10.469264351220547 2.090424042227036 1.2952693252380667 0 0 0
88 0 2 -0.75 15.55978873085458 7.101231058130784 12.504007087464908 0 0 0
89 0 2 -0.75 14.792260101700897 2.790549122754349 6.507889435808269 0 0 0
90 0 2 -0.75 11.249162400494226 6.205937628545079 6.991923376596638 0 0 0
91 0 2 -0.75 15.425935246224828 6.987480437349652 6.960140073348421 0 0 0
92 0 2 -0.75 10.610857507826696 2.437424365883576 6.229159008533021 0 0 0
93 0 2 -0.75 8.734472974724904 4.86981079527672 15.314379342380889 0 0 0
94 0 2 -0.75 0.9127831866155568 4.08641476547372 21.297529976637666 1 0 0
95 0 2 -0.75 12.804847846019136 0.7996269916560208 21.238418861789704 0 0 0
96 0 2 -0.75 12.826297481548341 7.9047030620713885 15.356121382806853 0 0 0
97 0 2 -0.75 11.360868276380923 6.045032904241753 23.74218831797782 0 0 0
98 0 2 -0.75 14.532330763777086 3.124556222040633 12.504789673285353 0 0 0
99 0 2 -0.75 10.363752787797488 2.1468440871460577 12.85975466700788 0 0 0
100 0 2 -0.75 15.521587927930607 6.791922088515718 23.966170927056098 0 0 0
101 0 2 -0.75 14.538083032750471 2.716040805579264 18.256176135056855 0 0 0
102 0 2 -0.75 11.24603337337286 6.0163871133293245 18.502629760743066 0 0 0
103 0 2 -0.75 15.34685780573038 6.73301365836587 18.609150019478015 0 0 0
104 0 2 -0.75 10.474510275430774 2.060645423408599 18.087471158520348 0 0 0
105 0 2 -0.75 8.757764443982628 12.935395131209274 3.76259178393004 0 0 0
106 0 2 -0.75 16.881043339694077 12.319408215904023 9.631089769950234 0 0 0
107 0 2 -0.75 13.195649309013316 9.02533462497092 9.46371351578421 0 0 0
108 0 2 -0.75 13.067474466731882 16.351907161528114 3.7520529700716874 0 0 0
109 0 2 -0.75 11.273158297725526 14.4029678133186 12.146236688816467 0 0 0
110 0 2 -0.75 14.743352534667752 10.943039253722757 1.4302228409259028 0 0 0
111 0 2 -0.75 10.627585123636235 10.17894770163025 1.1819420310577025 0 0 0
112 0 2 -0.75 15.308297190924106 15.178157375040108 12.112491032197083 0 0 0
113 0 2 -0.75 14.54409265984698 10.994063992111718 6.056858678155189 0 0 0
114 0 2 -0.75 11.177618734781028 14.49317252844118 6.691755476746278 0 0 0
115 0 2 -0.75 15.252932736193326 15.026120624183724 6.977355479979441 0 0 0
116 0 2 -0.75 10.47790272272839 10.22627951818842 6.437540529206562 0 0 0
117 0 2 -0.75 9.302341977476758 12.898589483090692 15.372464653172996 0 0 0
118 0 2 -0.75 0.7291633973562993 12.205547524452065 21.277411144248727 1 0 0
119 0 2 -0.75 13.190423888193328 9.040116909852758 21.303996059400838 0 0 0
120 0 2 -0.75 12.963194378506119 16.49490823113809 15.362016995620928 0 0 0
121 0 2 -0.75 11.221000365664697 14.238289023037426 23.558868392552217 0 0 0
122 0 2 -0.75 14.527998069542779 11.005026919923603 12.93502647741918 0 0 0
123 0 2 -0.75 10.356829105973484 10.325172408216273 12.625246824112505 0 0 0
124 0 2 -0.75 15.398522024786791 14.996290830736216 23.676190755399695 0 0 0
125 0 2 -0.75 14.642422499236174 10.803016649830408 17.983331463542125 0 0 0
126 0 2 -0.75 11.442311242854244 14.069798939826189 18.67785498898686 0 0 0
127 0 2 -0.75 15.407522645916718 14.955161508078824 18.533548133219035 0 0 0
128 0 2 -0.75 10.508676878533576 9.949035725107201 18.237056523437982 0 0 0
129 0 3 1.5 0.8436128501678473 4.436083269705539 0.9087837268565616 0 0 0
130 0 3 1.5 4.764224745605845 16.59352592188345 0.8469663602731748 0 -1 0
131 0 3 1.5 0.7774475028070198 4.5891724997497185 6.648044574868911 0 0 0
132 0 3 1.5 4.76245841013491 16.568190598375743 6.663274782980259 0 -1 0
133 0 3 1.5 0.7634634727988657 4.634570238141662 12.590912937163582 0 0 0
134 0 3 1.5 4.548539372236884 0.5808213097682496 12.416780536192134 0 0 0
135 0 3 1.5 16.952755771904425 4.330184841778973 18.46778198937585 -1 0 0
136 0 3 1.5 4.744269133225052 16.6118233766568 18.1997493285248 0 -1 0
137 0 3 1.5 0.8074089410475078 12.779423909992552 0.9275572527450575 0 0 0
138 0 3 1.5 4.9025191867887274 8.53989803166895 0.8874496553484342 0 0 0
139 0 3 1.5 16.88423345367358 12.682467225391433 6.721572445819913 -1 0 0
140 0 3 1.5 4.681815514974967 8.795317026302172 6.574468751179097 0 0 0
141 0 3 1.5 16.958632688622913 12.513622167047266 12.503709923473226 -1 0 0
142 0 3 1.5 4.765274491175807 8.695112917811674 12.574266543377865 0 0 0
143 0 3 1.5 0.8913181393688918 12.62726451984405 18.32206000017879 0 0 0
144 0 3 1.5 4.6694935563768345 8.48897438532437 18.463182048133778 0 0 0
145 0 3 1.5 8.898538931702278 4.534438968853922 24.102292837946916 0 0 -1
146 0 3 1.5 12.930455255188406 16.597446627513218 24.079011891380944 0 -1 -1
147 0 3 1.5 8.856238752530405 4.670118831261569 6.504813564306193 0 0 0
148 0 3 1.5 12.822199974746376 0.5649462142667716 6.613267965286435 0 0 0
149 0 3 1.5 8.742811296835557 4.640085337601892 12.379192148534921 0 0 0
150 0 3 1.5 12.926041329615371 0.7258311906287264 12.374960126057863 0 0 0
151 0 3 1.5 8.860009953031172 4.4926007230223215 18.132389337816093 0 0 0
152 0 3 1.5 12.897742078396915 16.60961392828113 18.40326096904491 0 -1 0
153 0 3 1.5 8.806190982206545 12.714063573292439 24.0602408219146 0 0 -1
154 0 3 1.5 13.089492687459808 8.558952566993396 0.87545172947728 0 0 0
155 0 3 1.5 8.955960739608713 12.607754943492493 6.622563680081442 0 0 0
156 0 3 1.5 13.038493570206525 8.458574669659347 6.555450864851497 0 0 0
157 0 3 1.5 8.87147837674711 12.774937903535424 12.414096443984848 0 0 0
158 0 3 1.5 12.887687760550195 8.576232692657841 12.411724992006695 0 0 0
159 0 3 1.5 9.051403645209707 12.541119061014351 18.268183611776145 0 0 0
160 0 3 1.5 12.919159581503905 8.336797174780152 18.355195821791806 0 0 0

Velocities

1 -0.0005697021945086122 0.0011909670296133279 -0.002346303784900042
2 -0.0013045242122420278 0.0017263181438057728 -0.00046085904575962974
3 0.001956872780347422 0.0011914259813061243 0.0014774506702900077
4 -0.0004998476465974489 0.0014389735285495642 -0.001348489339049571
5 0.0013224884355822937 0.0005440250599865043 -0.001237672824165402
6 -0.0007434030185864529 0.0014336956393742313 0.00028284958433689826
7 -0.00025384585607325796 -0.0023634698945988854 0.0017528304626550865
8 0.001115961638298087 0.0008954985470596243 -0.0007612051933615552
9 -0.0004805496727559603 0.0005483012332553006 0.0018201273657956715
10 0.001159940013817535 0.00036780110960088063 0.0012132575951123647
11 0.0004591540809150936 0.00026196564061544775 0.00043489291604755463
12 0.0012376881071823474 0.0024375349092920708 7.309515867551468e-05
13 -0.0008091708676697885 0.0022458709106798562 0.0007050412462032735
14 -0.0012248311942116437 -0.0022960754126347166 6.827700135268203e-05
15 0.0011187400892984603 0.0010522108620400878 -0.002191531149264985
16 -0.00015022533046520585 0.0031252157438362797 0.0008217219109305186
17 0.00012718031470455437 -0.0015058061452636403 0.0016253400797219756
18 -0.0010026993762867781 0.00010904648054480317 0.000358911068046442
19 -0.0008431321796221902 -0.0006681297808437657 -0.0003970598631132652
20 -0.0025086785625923784 -0.00010734894574553652 0.00311743843126957
21 0.002445247591780093 -0.0007480324026726771 0.0003617228715287428
22 0.0021465602507332844 0.0021510851140343033 -0.00036750788207709663
23 -0.0005752817055745337 0.0008585879344558144 -0.002187133382960535
24 -0.00046906049777959113 -0.0018138611365122338 -0.0012948027260282604
25 0.0029362889132240463 -0.0018665937958851388 0.0011318711334808067
26 0.0009587029167979743 0.00024739369576232215 0.0012323689319919016
27 0.002441671541916262 -0.0018703891218529625 0.001291874958127127
28 -0.0011424744909847855 -0.0005177580015993207 -0.0028490883283229717
29 -0.000716305307037295 7.699283218197724e-05 0.0013360616052795168
30 0.0009587262257281932 -0.0009046845570326054 -0.0012387103212272506
31 -0.0012304735877891192 -0.00010383769284827429 0.002623817739382537
32 -0.0006702188932471766 0.000820110859843578 0.0005437310998408515
33 -0.0024058219561046055 -0.0016002770574469203 -0.00020939615692230145
34 -0.0002316799481703588 -0.001479818557953023 0.0017969960249220897
35 0.0022368012065619117 0.00034632307228604385 0.00014925621006755014
36 -0.0009883042975767327 -0.00041967190564147077 -3.8162542569033564e-05
37 0.0003345903689224969 1.67857840073277e-05 -0.0020892527759953632
38 0.0006440549707821886 -0.0007532097786567677 -0.00044372929806028963
39 0.003072328199397208 0.0007913226428306928 0.0004022558885713495
40 0.0010849496947693128 0.0023679045504177774 -0.00035590071215009224
41 -0.0013021566391740826 0.0011893377256613092 7.83162982463537e-05
42 -0.0009275899620619599 0.0010032660948692117 0.0007657342187556998
43 0.0002835010112810763 -0.0008907956738424743 4.542372481312413e-05
44 0.0011476504752450222 0.0005293142054432695 0.0007454427497979457
45 -0.001248869307209163 0.0020711066487615584 -0.00055266155250888
46 -0.0011705917275896293 -0.001212484143924988 -0.0003061085958573598
47 0.0008050158969615807 -0.0015088887207684624 -0.00041952819285855564
48 0.0018353532159115888 0.00010785527453289025 -0.0012167600581407358
49 0.002213340034188488 -0.0035855400223256052 -0.0018415657424389578
50 0.001993358955515486 0.0033990060280570324 -0.0004959026544221292
51 6.288050631571057e-05 0.0012544302372417089 0.00022246939805867046
52 0.001355944802213957 0.001081253520040066 -0.0007447598800692433
53 -0.0002640221437218819 0.0005410595731348817 -0.001758709187054106
54 0.0002901279552997544 -0.0005361978023878403 0.00018412592753169326
55 -0.0016872001325058976 -0.0005410822405156519 -0.001897120978035461
56 -0.0028236514619360423 0.0021155284467133215 -0.0009362525544256657
57 0.00026855997522185496 0.0002965239974432918 0.001310335062913943
58 -2.3854407648317973e-05 0.001100250807294357 -0.0003968420539453213
59 0.001377437301193602 -0.0024376865359415456 0.000610068519495487
60 -2.3563675997676027e-06 0.00020462258737701316 -0.0016332837542842222
61 0.0001495923084999642 0.000313936911401158 0.00037403288179548337
62 0.0033594502034134895 0.001708322144369566 0.0005056302622187963
63 -0.000204377846255718 0.0003897753609889325 -0.002035974125311112
64 -0.0011682432019315622 0.000654931678750299 -0.0012003981415327385
65 0.00031634574527816036 -0.0003337913430603096 0.002097375357236514
66 4.443144613205616e-05 -5.834117741625951e-05 -0.0016680501706859937
67 -0.0010378245745984239 -0.0012558451525735612 -0.0022532739847641583
68 0.0013002449958820696 0.0015735172136505642 2.3213944593212645e-05
69 -0.0005126878546589929 0.0011922587066835026 0.0011316870800440475
70 -8.003916434276906e-05 -0.0002430423735010407 -0.0005422459737671035
71 -5.579538727803191e-05 0.000955108079875789 -0.0005624490003800226
72 -0.0015950130840325302 0.0003897655059174703 -0.0010418021702133626
73 -0.0005563287291701284 -0.001994817554218892 -0.0002711600578775292
74 -0.00012750591157295108 -0.0009581541611141101 0.0007441538865524952
75 0.0019056800296795308 0.00019175531453198175 0.0007639108067578811
76 -0.000959762413255321 -0.0013937076677332703 0.00017919290761408954
77 0.00032323020064146024 -0.0014684483857528574 0.00045257127700261673
78 0.0003561277939839795 -0.0018574306609792143 0.0002050641657663366
79 -0.0030191799446859123 -0.002581828973827442 0.0018491162530119998
80 -0.0007430587516786774 0.0009227980083554527 0.0019399323709991803
81 2.999843326870615e-05 -0.0013544650453203779 9.541077637333419e-05
82 -0.00034623887406201435 0.0009155519245672974 -0.0016554215948643171
83 0.0016316593413732287 -0.0008583858343467047 0.0016066201474798274
84 0.0021895193609427228 -0.001463680917523489 9.001889351314522e-06
85 0.001556744844786699 -0.003023221106496428 0.00039196093546501703
86 1.1616844445212796e-05 -0.0002292732911602761 5.937459847695051e-06
87 0.0001019363692338561 0.0006024983726327375 0.00035988114123292693
88 -0.0005795036865223152 0.0036369369598183536 0.001480297848472153
89 0.0032520888984168095 -3.6824142852519166e-06 -0.0007511157894002727
90 -0.0007681589173451387 -2.435461573187914e-05 -0.0002056437605792422
91 0.0008777285329838946 0.0006862704052043195 -0.0013900028603649822
92 -0.001512121873807745 -0.0005669588996079887 -0.0025836498672711663
93 -0.0013588630197800715 -0.0014890592797039228 -0.0016918701088509977
94 -0.00012081023822586767 -0.0007100135264515224 0.0019752240438794936
95 -0.001263940274212377 0.0006047702812330837 -0.0004883689044758908
96 0.0002510620387589925 0.0036523700365821664 -0.0029844509110778057
97 0.0016443708955052286 0.0006891577351846278 -0.000832059251943443
98 0.0012890019848916061 -0.00019221602524867415 -0.001395805396144845
99 0.0005166663101447258 0.0005784447409205911 -1.8591195681068434e-05
100 0.0012208626026639973 -0.0008039797201733088 0.0008796247376404843
101 -0.0027343718288826216 -0.0018050478977014908 -0.0019057162456757376
102 -0.0027526281171163396 0.0004597425642072824 -0.0005288654308100523
103 0.0005617755237874013 0.0005375972654319849 0.0005771799314388016
104 0.0004603074672139539 -0.0006636596469324911 0.00023848919825327994
105 -0.0014777390989871683 0.0007956693572067031 0.0009170762072528483
106 6.940730181624823e-05 -0.0008986825397331716 -7.37351941142778e-05
107 -0.0009987994497614443 0.0006513528393342702 -0.000594540199692005
108 0.0016796968503225169 -0.0010089453071816803 -0.00019956939686215455
109 -0.00020261344171087256 -0.0011682894113947402 -0.00035565452933501387
110 0.0019576596911301254 -0.0029219742110824687 -0.0005784752248538628
111 0.00133035496626415 0.0012589496803857283 -0.0007708987213790281
112 0.0010184095403372934 0.0005392459150708866 0.0012712694128017281
113 -0.00201692754910923 -0.000765150777312488 0.00029005120623967816
114 0.001417039646782663 0.0013676901747563387 0.0016813671805881547
115 -0.0009751226307252042 -0.0007057680678898813 0.0004934155605058799
116 -0.001727409291342673 0.0024202952008558648 -0.0021827081222063178
117 0.000370786776960622 -0.0007267714550887894 3.438803700706625e-05
118 -0.0005489264883429998 -0.0007458210762947861 0.00018939848106195407
119 -0.0009538622411161647 -0.00041745916065597855 0.001973173967761093
120 -0.0007417224622114092 -3.34683028597724e-05 0.0005283221751141079
121 -0.002618772501030873 0.0009053902881710541 0.0004385083888754202
122 0.0004240013572271838 -0.0024506070608832997 0.0006274683431017917
123 0.0003865238371750162 -0.0007164171256369113 -0.00040111544401964094
124 -0.001446011954369469 0.002498026874154022 5.7523668455747384e-05
125 -0.0020274938412077666 0.0015453447440035872 0.0011135262438865142
126 0.001881920780513103 0.0019283021249476106 0.0008038951614971791
127 0.0016714485919929248 -0.0004779643500829089 -0.0015134749475126145
128 -0.0008398067453908158 4.432789387563621e-05 -8.892044679602774e-05
129 -0.0005783858247652312 -0.0009945565309403682 -0.0008301153612815782
130 0.00015790414402262903 8.620250193704205e-05 0.0012442891108078702
131 0.0007856907601492077 -0.001322619472327417 0.0008184262382190468
132 -0.00028420810047321963 0.00021135843422685665 0.0033665959400429337
133 -0.0010870723321046165 0.0007283346779646396 0.0010544630269508312
134 -0.0015901100690207906 -0.00030030547790889703 0.0003856566380620752
135 -0.000905943541558191 -0.0017210074913249346 -0.0006214521909672956
136 0.000156502129832329 -0.0006593031309797003 0.0011011896831390141
137 0.000677383119703591 -0.0003177489415055888 -0.002284237499220192
138 0.0012616328368667772 -0.0007845297179692692 0.0009163507425793607
139 -0.0019269308364943366 -0.0012305932890192253 0.0009212468608678589
140 0.001003278629350534 0.0007921846697404366 -3.716439199371827e-05
141 -0.0004369844213191738 0.0017411082721512515 0.00033733248641803647
142 0.0010469469758294504 0.00012501608501696182 0.001958985375794138
143 -0.0012756856669195373 -0.0006774092772166072 -0.0009872591154148575
144 -0.0002708498943007438 -0.001398713441802701 -0.0019071026917429656
145 0.0018256196292696814 0.00032107852441732817 0.0009007393972154755
146 -0.000709092779443432 3.361430869826776e-05 -0.0015945643047468358
147 0.0001490807643685472 -0.0009633768684122215 0.0011695240523552678
148 1.9195510506104703e-05 3.613927154302551e-05 -0.00022499077860323616
149 -0.00011273267236285347 0.0007591498568632653 -0.0005768359251397616
150 0.0003066106239035018 0.0004886973974691797 -0.0014639674337622109
151 -0.00045513904685630244 -0.0012065223207807828 0.0004116955097379082
152 -0.001460004636942981 0.001431041869761325 0.0017175887360198132
153 -0.0019586574455989847 0.0008705075417552336 -0.0017142074892002996
154 0.0010346018226601989 0.0003534722560340785 0.0005664582812620923
155 -0.002930795530315587 -0.00047897565231852144 0.00016716573638250984
156 0.001751433706156607 9.746583648685479e-05 -0.00029132136716827114
157 -0.0017954330928221997 -0.0010972488862836791 -0.0008176985743818215
158 0.00023875438514940484 0.0011716575519481976 0.0005525530227848704
159 0.0009973839452040588 -0.0026823601072974196 0.001519084210596747
160 0.0008647014910242406 0.0016022434252799262 -0.0010166729541694968
