LAMMPS data file via write_data, version 23 Jun 2022, timestep = 10

160 atoms
3 atom types

0.8853517113581635 16.826648288641827 xlo xhi
0.40104672771464506 16.750953272285358 ylo yhi
0.9428803474180637 24.001119652581934 zlo zhi
0 0 0 xy xz yz

Masses

1 132.904999
2 126.90447
3 204.199997

Pair Coeffs # lj/cut/coul/long

1 0.0898565 3.52101
2 0.0427844 5.04975
3 0.094278 4.043

Atoms # full

1 0 1 0.85 4.550849831489529 4.529900744369175 3.8251603546438884 0 0 0
2 0 1 0.85 5.19050187250594 4.447145978428677 9.589720183136103 0 0 0
3 0 1 0.85 1.2051777281789449 0.44242411314343216 9.58972018313362 0 0 0
4 0 1 0.85 8.536173975809504 8.534622619495432 3.825160354648262 0 0 0
5 0 1 0.85 4.550849838859937 4.529900749292123 15.354279816866711 0 0 0
6 0 1 0.85 5.190501879870311 4.447145983351594 21.118839645352892 0 0 0
7 0 1 0.85 1.2051777355513023 0.4424241082255179 21.118839645356996 0 0 0
8 0 1 0.85 8.536173983176404 8.534622614570107 15.354279816863665 0 0 0
9 0 1 0.85 4.550849831491205 12.704854016649556 3.8251603546477444 0 0 0
10 0 1 0.85 5.190501872505402 12.62209925070992 9.589720183133968 0 0 0
11 0 1 0.85 1.2051777281790617 8.617377385432919 9.589720183132961 0 0 0
12 0 1 0.85 8.536173975810321 16.709575891771504 3.825160354646982 0 0 0
13 0 1 0.85 4.550849838859299 12.704854021569817 15.35427981686258 0 0 0
14 0 1 0.85 5.190501879872176 12.622099255632477 21.118839645356193 0 0 0
15 0 1 0.85 1.2051777355499889 8.617377380504662 21.118839645353347 0 0 0
16 0 1 0.85 8.536173983177582 16.70957588685444 15.354279816859917 0 0 0
17 0 1 0.85 12.521498120127937 4.529900744369802 3.8251603546447286 0 0 0
18 0 1 0.85 13.161150161139165 4.447145978427733 9.589720183136983 0 0 0
19 0 1 0.85 9.175826016822 0.4424241131445978 9.589720183135828 0 0 0
20 0 1 0.85 16.50682226444935 8.534622619493307 3.8251603546466635 0 0 0
21 0 1 0.85 12.521498127497836 4.529900749290324 15.354279816861942 0 0 0
22 0 1 0.85 13.161150168512648 4.447145983351308 21.11883964535557 0 0 0
23 0 1 0.85 9.175826024190357 0.4424241082243499 21.118839645357273 0 0 0
24 0 1 0.85 16.506822271822276 8.53462261457025 15.354279816866788 0 0 0
25 0 1 0.85 12.521498120127116 12.704854016649676 3.825160354649108 0 0 0
26 0 1 0.85 13.1611501611395 12.622099250710285 9.589720183131673 0 0 0
27 0 1 0.85 9.175826016820295 8.61737738543313 9.58972018313172 0 0 0
28 0 1 0.85 16.506822264449614 16.70957589177203 3.8251603546447948 0 0 0
29 0 1 0.85 12.521498127497038 12.70485402157 15.35427981686081 0 0 0
30 0 1 0.85 13.161150168510444 12.62209925563211 21.118839645357983 0 0 0
31 0 1 0.85 9.175826024189723 8.617377380506909 21.118839645356363 0 0 0
32 0 1 0.85 16.506822271821644 16.709575886854577 15.354279816864443 0 0 0
33 0 2 -0.85 0.8943646824297435 4.994873270528101 3.825160184185669 0 0 0
34 0 2 -0.85 8.846987031076623 3.982173478991023 9.589720009467568 0 0 0
35 0 2 -0.85 4.861662886753101 0.9073966125827935 9.589720009466477 0 0 0
36 0 2 -0.85 4.879688826746065 8.069650093322647 3.825160184180947 0 0 0
37 0 2 -0.85 3.318985439318229 6.101900504718898 12.06009133606729 0 0 0
38 0 2 -0.85 6.422366283280105 2.8751462072160066 1.354788981865127 0 0 0
39 0 2 -0.85 2.437042138961789 2.014423884354257 1.354788981864986 0 0 0
40 0 2 -0.85 7.30430958364102 6.9626228591336865 12.06009133606948 0 0 0
41 0 2 -0.85 6.422366272034394 2.8751462196435416 6.295531672182976 0 0 0
42 0 2 -0.85 3.3189854281629327 6.101900516982203 7.1193489683980555 0 0 0
43 0 2 -0.85 7.304309572482498 6.962622846864947 7.119348968398077 0 0 0
44 0 2 -0.85 2.4370421277192165 2.0144238719303345 6.295531672185466 0 0 0
45 0 2 -0.85 0.894364680278972 4.994873248720155 15.354279990528104 0 0 0
46 0 2 -0.85 8.846987028931249 3.9821734571790866 21.11883981581717 0 0 0
47 0 2 -0.85 4.861662884608623 0.9073966343862712 21.1188398158165 0 0 0
48 0 2 -0.85 4.879688824599932 8.069650115132308 15.354279990530257 0 0 0
49 0 2 -0.85 3.318985428076778 6.1019005204968995 23.589211018137426 0 0 0
50 0 2 -0.85 6.4223662720334875 2.875146222993075 12.88390866393243 0 0 0
51 0 2 -0.85 2.437042127713333 2.01442386857877 12.883908663931786 0 0 0
52 0 2 -0.85 7.304309572394982 6.962622843358535 23.589211018135323 0 0 0
53 0 2 -0.85 6.422366283193357 2.875146210723675 17.824651031601668 0 0 0
54 0 2 -0.85 3.3189854393190785 6.1019005080693685 18.648468327814975 0 0 0
55 0 2 -0.85 7.3043095836411 6.962622855787023 18.648468327814772 0 0 0
56 0 2 -0.85 2.4370421388707606 2.014423880839556 17.824651031600677 0 0 0
57 0 2 -0.85 0.8943646824315051 13.169826542817436 3.8251601841801732 0 0 0
58 0 2 -0.85 8.846987031077433 12.157126751277746 9.589720009471067 0 0 0
59 0 2 -0.85 4.86166288675209 9.082349884864865 9.589720009470078 0 0 0
60 0 2 -0.85 4.8796888267487395 16.24460336561661 3.8251601841833116 0 0 0
61 0 2 -0.85 3.318985439318402 14.276853777009084 12.060091336069489 0 0 0
62 0 2 -0.85 6.422366283277131 11.050099479503421 1.354788981859165 0 0 0
63 0 2 -0.85 2.4370421389605763 10.189377156640045 1.3547889818602412 0 0 0
64 0 2 -0.85 7.304309583639716 15.137576131422385 12.060091336071293 0 0 0
65 0 2 -0.85 6.422366272034029 11.050099491930336 6.295531672186174 0 0 0
66 0 2 -0.85 3.318985428165213 14.276853789275942 7.119348968399979 0 0 0
67 0 2 -0.85 7.304309572481532 15.137576119160512 7.1193489683980555 0 0 0
68 0 2 -0.85 2.437042127717812 10.189377144211887 6.295531672186274 0 0 0
69 0 2 -0.85 0.8943646802782058 13.169826521013844 15.354279990532177 0 0 0
70 0 2 -0.85 8.846987028929927 12.157126729472193 21.118839815813832 0 0 0
71 0 2 -0.85 4.8616628846056305 9.082349906677079 21.11883981581824 0 0 0
72 0 2 -0.85 4.879688824598977 16.244603387419914 15.354279990533634 0 0 0
73 0 2 -0.85 3.3189854280758713 14.276853792782617 23.58921101813234 0 0 0
74 0 2 -0.85 6.422366272034922 11.050099495279918 12.883908663931694 0 0 0
75 0 2 -0.85 2.437042127713498 10.189377140863828 12.883908663928693 0 0 0
76 0 2 -0.85 7.304309572396009 15.137576115649178 23.58921101813063 0 0 0
77 0 2 -0.85 6.422366283192438 11.050099483016973 17.824651031605207 0 0 0
78 0 2 -0.85 3.318985439318441 14.276853780357536 18.64846832781573 0 0 0
79 0 2 -0.85 7.304309583640985 15.137576128073661 18.648468327815678 0 0 0
80 0 2 -0.85 2.43704213887117 10.189377153132952 17.82465103160623 0 0 0
81 0 2 -0.85 8.865012971071833 4.994873270525813 3.8251601841822587 0 0 0
82 0 2 -0.85 16.817635319721095 3.9821734789903984 9.58972000946821 0 0 0
83 0 2 -0.85 12.832311175403007 0.9073966125817968 9.589720009466602 0 0 0
84 0 2 -0.85 12.850337115395552 8.06965009332136 3.825160184181 0 0 0
85 0 2 -0.85 11.289633727965471 6.101900504721658 12.06009133607068 0 0 0
86 0 2 -0.85 14.393014571922029 2.8751462072168423 1.3547889818648178 0 0 0
87 0 2 -0.85 10.407690427604404 2.0144238843551054 1.3547889818624075 0 0 0
88 0 2 -0.85 15.274957872286825 6.9626228591342585 12.060091336068409 0 0 0
89 0 2 -0.85 14.393014560681614 2.8751462196443436 6.2955316721838415 0 0 0
90 0 2 -0.85 11.28963371681077 6.101900516981462 7.119348968396599 0 0 0
91 0 2 -0.85 15.27495786112984 6.962622846865747 7.1193489683984055 0 0 0
92 0 2 -0.85 10.407690416363021 2.014423871930741 6.295531672182878 0 0 0
93 0 2 -0.85 8.865012968924107 4.994873248721857 15.354279990532625 0 0 0
94 0 2 -0.85 16.81763531756929 3.9821734571799667 21.118839815817612 0 0 0
95 0 2 -0.85 12.83231117324995 0.9073966343870878 21.118839815814237 0 0 0
96 0 2 -0.85 12.850337113243345 8.069650115131894 15.354279990532387 0 0 0
97 0 2 -0.85 11.289633716720964 6.1019005204939045 23.589211018135288 0 0 0
98 0 2 -0.85 14.393014560682955 2.875146222992196 12.88390866393369 0 0 0
99 0 2 -0.85 10.407690416359083 2.014423868578916 12.883908663935442 0 0 0
100 0 2 -0.85 15.274957861038708 6.962622843360937 23.589211018135035 0 0 0
101 0 2 -0.85 14.393014571832769 2.8751462107239374 17.82465103160113 0 0 0
102 0 2 -0.85 11.289633727963905 6.101900508068198 18.64846832781366 0 0 0
103 0 2 -0.85 15.274957872279332 6.962622855787106 18.648468327815294 0 0 0
104 0 2 -0.85 10.407690427516886 2.0144238808411483 17.82465103160376 0 0 0
105 0 2 -0.85 8.865012971070538 13.169826542820541 3.825160184180057 0 0 0
106 0 2 -0.85 16.817635319721155 12.15712675127708 9.58972000947125 0 0 0
107 0 2 -0.85 12.83231117540198 9.08234988486418 9.589720009471511 0 0 0
108 0 2 -0.85 12.850337115393849 16.244603365617877 3.8251601841822773 0 0 0
109 0 2 -0.85 11.289633727966851 14.276853777007725 12.060091336071808 0 0 0
110 0 2 -0.85 14.39301457192552 11.050099479502945 1.3547889818590817 0 0 0
111 0 2 -0.85 10.407690427605845 10.189377156639718 1.3547889818586034 0 0 0
112 0 2 -0.85 15.274957872286624 15.137576131422694 12.060091336071924 0 0 0
113 0 2 -0.85 14.39301456068365 11.050099491927876 6.295531672186015 0 0 0
114 0 2 -0.85 11.289633716809737 14.276853789276597 7.119348968399321 0 0 0
115 0 2 -0.85 15.27495786112904 15.137576119161032 7.119348968399876 0 0 0
116 0 2 -0.85 10.407690416362733 10.189377144212104 6.295531672186158 0 0 0
117 0 2 -0.85 8.865012968922978 13.169826521012116 15.354279990535474 0 0 0
118 0 2 -0.85 16.817635317570243 12.157126729470056 21.118839815816315 0 0 0
119 0 2 -0.85 12.832311173252132 9.082349906676045 21.118839815815388 0 0 0
120 0 2 -0.85 12.85033711324537 16.244603387419055 15.35427999053592 0 0 0
121 0 2 -0.85 11.28963371672021 14.27685379278506 23.589211018129948 0 0 0
122 0 2 -0.85 14.393014560680749 11.0500994952803 12.88390866393206 0 0 0
123 0 2 -0.85 10.40769041636001 10.189377140863101 12.883908663933028 0 0 0
124 0 2 -0.85 15.274957861039349 15.137576115646747 23.5892110181302 0 0 0
125 0 2 -0.85 14.393014571833449 11.050099483017096 17.82465103160498 0 0 0
126 0 2 -0.85 11.289633727963482 14.276853780358094 18.64846832781527 0 0 0
127 0 2 -0.85 15.274957872280993 15.137576128073164 18.64846832781463 0 0 0
128 0 2 -0.85 10.40769042751699 10.189377153131888 17.82465103160448 0 0 0
129 0 3 1.7 0.8853517113585597 4.488523363861108 24.001119652579018 0 0 -1
130 0 3 1.7 4.870675855678883 16.75095327228188 0.9428803474205285 0 -1 0
131 0 3 1.7 0.8853517151121795 4.488523389103952 6.707439914156996 0 0 0
132 0 3 1.7 4.870675859439569 16.750953247034477 6.707439914158883 0 -1 0
133 0 3 1.7 16.826648288639284 4.488523363860312 12.472000000000536 -1 0 0
134 0 3 1.7 4.87067585568664 16.750953272282644 12.471999999998388 0 -1 0
135 0 3 1.7 16.826648284891608 4.488523338623927 18.23656008584659 -1 0 0
136 0 3 1.7 4.87067585192512 0.40104675295989706 18.236560085840704 0 0 0
137 0 3 1.7 16.826648288641 12.663476636144187 0.9428803474283622 -1 0 0
138 0 3 1.7 4.8706758556862715 8.575999999999267 0.9428803474216301 0 0 0
139 0 3 1.7 0.8853517151084342 12.663476661382026 6.707439914151945 0 0 0
140 0 3 1.7 4.8706758594443125 8.575999974764633 6.7074399141563665 0 0 0
141 0 3 1.7 0.8853517113596112 12.663476636136648 12.471999999998605 0 0 0
142 0 3 1.7 4.870675855685539 8.5760000000037 12.472000000003838 0 0 0
143 0 3 1.7 16.826648284890247 12.663476610893353 18.23656008583795 -1 0 0
144 0 3 1.7 4.870675851925178 8.576000025236766 18.236560085836153 0 0 0
145 0 3 1.7 8.8559999999984 4.488523363864481 24.001119652581114 0 0 -1
146 0 3 1.7 12.841324144319234 16.75095327228014 0.942880347424573 0 -1 0
147 0 3 1.7 8.856000003755407 4.488523389106129 6.707439914161995 0 0 0
148 0 3 1.7 12.841324148069791 16.75095324703197 6.707439914159191 0 -1 0
149 0 3 1.7 8.856000000000412 4.488523363856214 12.471999999995866 0 0 0
150 0 3 1.7 12.841324144310738 0.40104672771619887 12.471999999993706 0 0 0
151 0 3 1.7 8.85599999623854 4.48852333862357 18.236560085844534 0 0 0
152 0 3 1.7 12.841324140565158 0.40104675295827563 18.236560085841266 0 0 0
153 0 3 1.7 8.856000000000906 12.663476636137498 0.9428803474306863 0 0 0
154 0 3 1.7 12.841324144315692 8.576000000000938 0.9428803474239674 0 0 0
155 0 3 1.7 8.856000003757115 12.663476661377878 6.707439914152843 0 0 0
156 0 3 1.7 12.841324148068924 8.575999974767287 6.707439914157049 0 0 0
157 0 3 1.7 8.855999999999412 12.663476636139228 12.471999999995147 0 0 0
158 0 3 1.7 12.84132414431627 8.576000000003486 12.471999999998973 0 0 0
159 0 3 1.7 8.855999996241668 12.663476610893483 18.236560085838597 0 0 0
160 0 3 1.7 12.84132414056506 8.576000025239582 18.23656008583873 0 0 0

Velocities

1 0 0 0
2 0 0 0
3 0 0 0
4 0 0 0
5 0 0 0
6 0 0 0
7 0 0 0
8 0 0 0
9 0 0 0
10 0 0 0
11 0 0 0
12 0 0 0
13 0 0 0
14 0 0 0
15 0 0 0
16 0 0 0
17 0 0 0
18 0 0 0
19 0 0 0
20 0 0 0
21 0 0 0
22 0 0 0
23 0 0 0
24 0 0 0
25 0 0 0
26 0 0 0
27 0 0 0
28 0 0 0
29 0 0 0
30 0 0 0
31 0 0 0
32 0 0 0
33 0 0 0
34 0 0 0
35 0 0 0
36 0 0 0
37 0 0 0
38 0 0 0
39 0 0 0
40 0 0 0
41 0 0 0
42 0 0 0
43 0 0 0
44 0 0 0
45 0 0 0
46 0 0 0
47 0 0 0
48 0 0 0
49 0 0 0
50 0 0 0
51 0 0 0
52 0 0 0
53 0 0 0
54 0 0 0
55 0 0 0
56 0 0 0
57 0 0 0
58 0 0 0
59 0 0 0
60 0 0 0
61 0 0 0
62 0 0 0
63 0 0 0
64 0 0 0
65 0 0 0
66 0 0 0
67 0 0 0
68 0 0 0
69 0 0 0
70 0 0 0
71 0 0 0
72 0 0 0
73 0 0 0
74 0 0 0
75 0 0 0
76 0 0 0
77 0 0 0
78 0 0 0
79 0 0 0
80 0 0 0
81 0 0 0
82 0 0 0
83 0 0 0
84 0 0 0
85 0 0 0
86 0 0 0
87 0 0 0
88 0 0 0
89 0 0 0
90 0 0 0
91 0 0 0
92 0 0 0
93 0 0 0
94 0 0 0
95 0 0 0
96 0 0 0
97 0 0 0
98 0 0 0
99 0 0 0
100 0 0 0
101 0 0 0
102 0 0 0
103 0 0 0
104 0 0 0
105 0 0 0
106 0 0 0
107 0 0 0
108 0 0 0
109 0 0 0
110 0 0 0
111 0 0 0
112 0 0 0
113 0 0 0
114 0 0 0
115 0 0 0
116 0 0 0
117 0 0 0
118 0 0 0
119 0 0 0
120 0 0 0
121 0 0 0
122 0 0 0
123 0 0 0
124 0 0 0
125 0 0 0
126 0 0 0
127 0 0 0
128 0 0 0
129 0 0 0
130 0 0 0
131 0 0 0
132 0 0 0
133 0 0 0
134 0 0 0
135 0 0 0
136 0 0 0
137 0 0 0
138 0 0 0
139 0 0 0
140 0 0 0
141 0 0 0
142 0 0 0
143 0 0 0
144 0 0 0
145 0 0 0
146 0 0 0
147 0 0 0
148 0 0 0
149 0 0 0
150 0 0 0
151 0 0 0
152 0 0 0
153 0 0 0
154 0 0 0
155 0 0 0
156 0 0 0
157 0 0 0
158 0 0 0
159 0 0 0
160 0 0 0
