data.CPI (written by ASE) 

160 	 atoms 
3  atom types
0.0      20.868400000000001  xlo xhi
0.0      19.161999999999999  ylo yhi
0.0      17.760999999999999  zlo zhi
                      0                       0                       0  xy xz yz


Atoms 

     1   0   1  0.85             4.336870888      1.1976249999999999      11.915854900000001
     2   0   1  0.85     0.88022911199999998      3.5928749999999998      3.0353549000000006
     3   0   1  0.85      6.0973291120000006      3.5928749999999998       5.845145099999999
     4   0   1  0.85      9.5539708880000003      1.1976249999999999      14.725645099999998
     5   0   1  0.85             4.336870888      5.9881250000000001      11.915854900000001
     6   0   1  0.85     0.88022911199999998      8.3833749999999991      3.0353549000000006
     7   0   1  0.85      6.0973291120000006      8.3833749999999991       5.845145099999999
     8   0   1  0.85      9.5539708880000003      5.9881250000000001      14.725645099999998
     9   0   1  0.85             4.336870888               10.778625      11.915854900000001
    10   0   1  0.85     0.88022911199999998      13.173874999999999      3.0353549000000006
    11   0   1  0.85      6.0973291120000006      13.173874999999999       5.845145099999999
    12   0   1  0.85      9.5539708880000003               10.778625      14.725645099999998
    13   0   1  0.85             4.336870888               15.569125      11.915854900000001
    14   0   1  0.85     0.88022911199999998               17.964375      3.0353549000000006
    15   0   1  0.85      6.0973291120000006               17.964375       5.845145099999999
    16   0   1  0.85      9.5539708880000003               15.569125      14.725645099999998
    17   0   1  0.85      14.771070888000001      1.1976249999999999      11.915854900000001
    18   0   1  0.85      11.314429112000001      3.5928749999999998      3.0353549000000006
    19   0   1  0.85      16.531529112000001      3.5928749999999998       5.845145099999999
    20   0   1  0.85      19.988170887999999      1.1976249999999999      14.725645099999998
    21   0   1  0.85      14.771070888000001      5.9881250000000001      11.915854900000001
    22   0   1  0.85      11.314429112000001      8.3833749999999991      3.0353549000000006
    23   0   1  0.85      16.531529112000001      8.3833749999999991       5.845145099999999
    24   0   1  0.85      19.988170887999999      5.9881250000000001      14.725645099999998
    25   0   1  0.85      14.771070888000001               10.778625      11.915854900000001
    26   0   1  0.85      11.314429112000001      13.173874999999999      3.0353549000000006
    27   0   1  0.85      16.531529112000001      13.173874999999999       5.845145099999999
    28   0   1  0.85      19.988170887999999               10.778625      14.725645099999998
    29   0   1  0.85      14.771070888000001               15.569125      11.915854900000001
    30   0   1  0.85      11.314429112000001               17.964375      3.0353549000000006
    31   0   1  0.85      16.531529112000001               17.964375       5.845145099999999
    32   0   1  0.85      19.988170887999999               15.569125      14.725645099999998
    33   0   2 -0.83      1.7030701240000001      1.1976249999999999    0.028417600000000001
    34   0   2 -0.83      3.5140298759999999      3.5928749999999998      8.9089176000000005
    35   0   2 -0.83      8.7311298760000007      3.5928749999999998      17.732582399999998
    36   0   2 -0.83      6.9201701240000011      1.1976249999999999      8.8520824000000005
    37   0   2 -0.83      3.1208692199999999      1.1976249999999999      5.1025576899999994
    38   0   2 -0.83      2.0962307800000004      3.5928749999999998      13.983057690000001
    39   0   2 -0.83      7.3133307800000011      3.5928749999999998      12.658442309999998
    40   0   2 -0.83      8.3379692199999997      1.1976249999999999      3.7779423099999998
    41   0   2 -0.83     0.33295532200000011      1.1976249999999999             10.91395689
    42   0   2 -0.83      4.8841446780000002      3.5928749999999998      2.0334568899999996
    43   0   2 -0.83            10.101244678      3.5928749999999998      6.8470431100000004
    44   0   2 -0.83      5.5500553220000004      1.1976249999999999      15.727543109999999
    45   0   2 -0.83      1.7030701240000001      5.9881250000000001    0.028417600000000001
    46   0   2 -0.83      3.5140298759999999      8.3833749999999991      8.9089176000000005
    47   0   2 -0.83      8.7311298760000007      8.3833749999999991      17.732582399999998
    48   0   2 -0.83      6.9201701240000011      5.9881250000000001      8.8520824000000005
    49   0   2 -0.83      3.1208692199999999      5.9881250000000001      5.1025576899999994
    50   0   2 -0.83      2.0962307800000004      8.3833749999999991      13.983057690000001
    51   0   2 -0.83      7.3133307800000011      8.3833749999999991      12.658442309999998
    52   0   2 -0.83      8.3379692199999997      5.9881250000000001      3.7779423099999998
    53   0   2 -0.83     0.33295532200000011      5.9881250000000001             10.91395689
    54   0   2 -0.83      4.8841446780000002      8.3833749999999991      2.0334568899999996
    55   0   2 -0.83            10.101244678      8.3833749999999991      6.8470431100000004
    56   0   2 -0.83      5.5500553220000004      5.9881250000000001      15.727543109999999
    57   0   2 -0.83      1.7030701240000001               10.778625    0.028417600000000001
    58   0   2 -0.83      3.5140298759999999      13.173874999999999      8.9089176000000005
    59   0   2 -0.83      8.7311298760000007      13.173874999999999      17.732582399999998
    60   0   2 -0.83      6.9201701240000011               10.778625      8.8520824000000005
    61   0   2 -0.83      3.1208692199999999               10.778625      5.1025576899999994
    62   0   2 -0.83      2.0962307800000004      13.173874999999999      13.983057690000001
    63   0   2 -0.83      7.3133307800000011      13.173874999999999      12.658442309999998
    64   0   2 -0.83      8.3379692199999997               10.778625      3.7779423099999998
    65   0   2 -0.83     0.33295532200000011               10.778625             10.91395689
    66   0   2 -0.83      4.8841446780000002      13.173874999999999      2.0334568899999996
    67   0   2 -0.83            10.101244678      13.173874999999999      6.8470431100000004
    68   0   2 -0.83      5.5500553220000004               10.778625      15.727543109999999
    69   0   2 -0.83      1.7030701240000001               15.569125    0.028417600000000001
    70   0   2 -0.83      3.5140298759999999               17.964375      8.9089176000000005
    71   0   2 -0.83      8.7311298760000007               17.964375      17.732582399999998
    72   0   2 -0.83      6.9201701240000011               15.569125      8.8520824000000005
    73   0   2 -0.83      3.1208692199999999               15.569125      5.1025576899999994
    74   0   2 -0.83      2.0962307800000004               17.964375      13.983057690000001
    75   0   2 -0.83      7.3133307800000011               17.964375      12.658442309999998
    76   0   2 -0.83      8.3379692199999997               15.569125      3.7779423099999998
    77   0   2 -0.83     0.33295532200000011               15.569125             10.91395689
    78   0   2 -0.83      4.8841446780000002               17.964375      2.0334568899999996
    79   0   2 -0.83            10.101244678               17.964375      6.8470431100000004
    80   0   2 -0.83      5.5500553220000004               15.569125      15.727543109999999
    81   0   2 -0.83            12.137270124      1.1976249999999999    0.028417600000000001
    82   0   2 -0.83      13.948229876000001      3.5928749999999998      8.9089176000000005
    83   0   2 -0.83      19.165329876000001      3.5928749999999998      17.732582399999998
    84   0   2 -0.83      17.354370124000003      1.1976249999999999      8.8520824000000005
    85   0   2 -0.83             13.55506922      1.1976249999999999      5.1025576899999994
    86   0   2 -0.83      12.530430780000001      3.5928749999999998      13.983057690000001
    87   0   2 -0.83      17.747530780000002      3.5928749999999998      12.658442309999998
    88   0   2 -0.83      18.772169220000002      1.1976249999999999      3.7779423099999998
    89   0   2 -0.83      10.767155322000001      1.1976249999999999             10.91395689
    90   0   2 -0.83      15.318344678000001      3.5928749999999998      2.0334568899999996
    91   0   2 -0.83      20.535444678000001      3.5928749999999998      6.8470431100000004
    92   0   2 -0.83      15.984255322000001      1.1976249999999999      15.727543109999999
    93   0   2 -0.83            12.137270124      5.9881250000000001    0.028417600000000001
    94   0   2 -0.83      13.948229876000001      8.3833749999999991      8.9089176000000005
    95   0   2 -0.83      19.165329876000001      8.3833749999999991      17.732582399999998
    96   0   2 -0.83      17.354370124000003      5.9881250000000001      8.8520824000000005
    97   0   2 -0.83             13.55506922      5.9881250000000001      5.1025576899999994
    98   0   2 -0.83      12.530430780000001      8.3833749999999991      13.983057690000001
    99   0   2 -0.83      17.747530780000002      8.3833749999999991      12.658442309999998
   100   0   2 -0.83      18.772169220000002      5.9881250000000001      3.7779423099999998
   101   0   2 -0.83      10.767155322000001      5.9881250000000001             10.91395689
   102   0   2 -0.83      15.318344678000001      8.3833749999999991      2.0334568899999996
   103   0   2 -0.83      20.535444678000001      8.3833749999999991      6.8470431100000004
   104   0   2 -0.83      15.984255322000001      5.9881250000000001      15.727543109999999
   105   0   2 -0.83            12.137270124               10.778625    0.028417600000000001
   106   0   2 -0.83      13.948229876000001      13.173874999999999      8.9089176000000005
   107   0   2 -0.83      19.165329876000001      13.173874999999999      17.732582399999998
   108   0   2 -0.83      17.354370124000003               10.778625      8.8520824000000005
   109   0   2 -0.83             13.55506922               10.778625      5.1025576899999994
   110   0   2 -0.83      12.530430780000001      13.173874999999999      13.983057690000001
   111   0   2 -0.83      17.747530780000002      13.173874999999999      12.658442309999998
   112   0   2 -0.83      18.772169220000002               10.778625      3.7779423099999998
   113   0   2 -0.83      10.767155322000001               10.778625             10.91395689
   114   0   2 -0.83      15.318344678000001      13.173874999999999      2.0334568899999996
   115   0   2 -0.83      20.535444678000001      13.173874999999999      6.8470431100000004
   116   0   2 -0.83      15.984255322000001               10.778625      15.727543109999999
   117   0   2 -0.83            12.137270124               15.569125    0.028417600000000001
   118   0   2 -0.83      13.948229876000001               17.964375      8.9089176000000005
   119   0   2 -0.83      19.165329876000001               17.964375      17.732582399999998
   120   0   2 -0.83      17.354370124000003               15.569125      8.8520824000000005
   121   0   2 -0.83             13.55506922               15.569125      5.1025576899999994
   122   0   2 -0.83      12.530430780000001               17.964375      13.983057690000001
   123   0   2 -0.83      17.747530780000002               17.964375      12.658442309999998
   124   0   2 -0.83      18.772169220000002               15.569125      3.7779423099999998
   125   0   2 -0.83      10.767155322000001               15.569125             10.91395689
   126   0   2 -0.83      15.318344678000001               17.964375      2.0334568899999996
   127   0   2 -0.83      20.535444678000001               17.964375      6.8470431100000004
   128   0   2 -0.83      15.984255322000001               15.569125      15.727543109999999
   129   0   3  1.64      1.6735413380000002      1.1976249999999999      7.7787851699999999
   130   0   3  1.64      3.5435586619999997      3.5928749999999998             16.65928517
   131   0   3  1.64      8.7606586620000009      3.5928749999999998      9.9822148300000002
   132   0   3  1.64      6.8906413380000009      1.1976249999999999      1.1017148299999995
   133   0   3  1.64      1.6735413380000002      5.9881250000000001      7.7787851699999999
   134   0   3  1.64      3.5435586619999997      8.3833749999999991             16.65928517
   135   0   3  1.64      8.7606586620000009      8.3833749999999991      9.9822148300000002
   136   0   3  1.64      6.8906413380000009      5.9881250000000001      1.1017148299999995
   137   0   3  1.64      1.6735413380000002               10.778625      7.7787851699999999
   138   0   3  1.64      3.5435586619999997      13.173874999999999             16.65928517
   139   0   3  1.64      8.7606586620000009      13.173874999999999      9.9822148300000002
   140   0   3  1.64      6.8906413380000009               10.778625      1.1017148299999995
   141   0   3  1.64      1.6735413380000002               15.569125      7.7787851699999999
   142   0   3  1.64      3.5435586619999997               17.964375             16.65928517
   143   0   3  1.64      8.7606586620000009               17.964375      9.9822148300000002
   144   0   3  1.64      6.8906413380000009               15.569125      1.1017148299999995
   145   0   3  1.64            12.107741338      1.1976249999999999      7.7787851699999999
   146   0   3  1.64      13.977758661999999      3.5928749999999998             16.65928517
   147   0   3  1.64      19.194858662000001      3.5928749999999998      9.9822148300000002
   148   0   3  1.64      17.324841338000002      1.1976249999999999      1.1017148299999995
   149   0   3  1.64            12.107741338      5.9881250000000001      7.7787851699999999
   150   0   3  1.64      13.977758661999999      8.3833749999999991             16.65928517
   151   0   3  1.64      19.194858662000001      8.3833749999999991      9.9822148300000002
   152   0   3  1.64      17.324841338000002      5.9881250000000001      1.1017148299999995
   153   0   3  1.64            12.107741338               10.778625      7.7787851699999999
   154   0   3  1.64      13.977758661999999      13.173874999999999             16.65928517
   155   0   3  1.64      19.194858662000001      13.173874999999999      9.9822148300000002
   156   0   3  1.64      17.324841338000002               10.778625      1.1017148299999995
   157   0   3  1.64            12.107741338               15.569125      7.7787851699999999
   158   0   3  1.64      13.977758661999999               17.964375             16.65928517
   159   0   3  1.64      19.194858662000001               17.964375      9.9822148300000002
   160   0   3  1.64      17.324841338000002               15.569125      1.1017148299999995
