LAMMPS data file via write_data, version 23 Jun 2022, timestep = 9

160 atoms
3 atom types

0.7703400326338943 16.9416599673661 xlo xhi
0.5727340057971927 16.579265994202807 ylo yhi
0.9640474157149649 23.97995258428504 zlo zhi
0 0 0 xy xz yz

Masses

1 132.904999
2 126.90447
3 204.199997

Pair Coeffs # lj/cut/coul/long

1 0.0898565 3.52101
2 0.0427844 5.04975
3 0.094278 4.043

Atoms # full

1 0 1 0.85 4.489334345378122 4.615002241027804 3.8410357293348096 0 0 0
2 0 1 0.85 5.1370056739665 4.533731756546664 9.595012025413531 0 0 0
3 0 1 0.85 1.0941756902851583 0.6133692521414909 9.59501202541232 0 0 0
4 0 1 0.85 8.532164329059622 8.535364761876005 3.841035729337525 0 0 0
5 0 1 0.85 4.489334358658711 4.615002249249086 15.348987974589935 0 0 0
6 0 1 0.85 5.137005687266349 4.53373176478192 21.10296427066255 0 0 0
7 0 1 0.85 1.0941757035743431 0.6133692439279156 21.102964270664074 0 0 0
8 0 1 0.85 8.532164342347565 8.535364753651885 15.348987974590688 0 0 0
9 0 1 0.85 4.489334345376074 12.61826823522821 3.8410357293430972 0 0 0
10 0 1 0.85 5.137005673965213 12.536997750754596 9.59501202541044 0 0 0
11 0 1 0.85 1.0941756902855888 8.616635246354566 9.595012025409298 0 0 0
12 0 1 0.85 8.532164329058931 16.538630756073772 3.8410357293320065 0 0 0
13 0 1 0.85 4.489334358655866 12.618268243444883 15.348987974580968 0 0 0
14 0 1 0.85 5.137005687264968 12.536997758967306 21.10296427066792 0 0 0
15 0 1 0.85 1.0941757035761768 8.616635238119322 21.102964270656738 0 0 0
16 0 1 0.85 8.532164342348702 16.538630747855457 15.348987974582151 0 0 0
17 0 1 0.85 12.574994312737024 4.615002241027276 3.841035729330433 0 0 0
18 0 1 0.85 13.22266564134043 4.53373175654662 9.59501202541247 0 0 0
19 0 1 0.85 9.179835657650619 0.6133692521402767 9.595012025411318 0 0 0
20 0 1 0.85 16.617824296420142 8.535364761876652 3.8410357293447888 0 0 0
21 0 1 0.85 12.57499432603438 4.615002249248296 15.348987974593602 0 0 0
22 0 1 0.85 13.222665654622054 4.533731764780984 21.102964270661865 0 0 0
23 0 1 0.85 9.179835670946497 0.6133692439301278 21.10296427067518 0 0 0
24 0 1 0.85 16.617824309715612 8.535364753653177 15.348987974588818 0 0 0
25 0 1 0.85 12.574994312735578 12.6182682352283 3.8410357293398603 0 0 0
26 0 1 0.85 13.222665641337926 12.536997750754214 9.595012025410604 0 0 0
27 0 1 0.85 9.179835657652353 8.616635246354575 9.595012025403893 0 0 0
28 0 1 0.85 16.61782429641838 16.538630756074 3.841035729341154 0 0 0
29 0 1 0.85 12.574994326033673 12.618268243446382 15.348987974583595 0 0 0
30 0 1 0.85 13.222665654624349 12.536997758969619 21.10296427066638 0 0 0
31 0 1 0.85 9.179835670946558 8.616635238117851 21.102964270667183 0 0 0
32 0 1 0.85 16.61782430971334 16.538630747854732 15.348987974582693 0 0 0
33 0 2 -0.85 0.7796427355377988 5.070675208448926 3.8410354257171533 0 0 0
34 0 2 -0.85 8.846697300941855 4.078058835935707 9.595011716080716 0 0 0
35 0 2 -0.85 4.803867317258904 1.0690421727693749 9.595011716079552 0 0 0
36 0 2 -0.85 4.822472719212506 8.079691794443146 3.841035425716937 0 0 0
37 0 2 -0.85 3.239352777237919 6.153560337690633 12.060545865852015 0 0 0
38 0 2 -0.85 6.386987275590905 2.995173640074632 1.375501496018691 0 0 0
39 0 2 -0.85 2.3441572919127784 2.1519273686169726 1.3755014960148977 0 0 0
40 0 2 -0.85 7.282182760922012 6.99680666520381 12.060545865855692 0 0 0
41 0 2 -0.85 6.386987255614699 2.9951736622562812 6.306569863241818 0 0 0
42 0 2 -0.85 3.2393527573921137 6.153560359610311 7.129478073780948 0 0 0
43 0 2 -0.85 7.282182741068986 6.9968066432737395 7.129478073787429 0 0 0
44 0 2 -0.85 2.3441572719331356 2.151927346447121 6.306569863236899 0 0 0
45 0 2 -0.85 0.779642731692646 5.0706751698642245 15.348988283914869 0 0 0
46 0 2 -0.85 8.846697297096487 4.078058797332137 21.10296457427711 0 0 0
47 0 2 -0.85 4.803867313413241 1.0690422113431708 21.102964574273475 0 0 0
48 0 2 -0.85 4.822472715383578 8.079691833033706 15.34898828392062 0 0 0
49 0 2 -0.85 3.239352757032365 6.153560365717865 23.568498503994377 0 0 0
50 0 2 -0.85 6.386987255403469 2.9951736681074492 12.88345413414818 0 0 0
51 0 2 -0.85 2.344157271716476 2.151927340592545 12.883454134148836 0 0 0
52 0 2 -0.85 7.282182740711103 6.996806637178971 23.568498503994682 0 0 0
53 0 2 -0.85 6.386987275245957 2.995173646167692 17.814521926214564 0 0 0
54 0 2 -0.85 3.23935277702295 6.153560343543516 18.637430136750474 0 0 0
55 0 2 -0.85 7.2821827606981815 6.996806659358569 18.63743013674138 0 0 0
56 0 2 -0.85 2.344157291566067 2.151927362503809 17.81452192622154 0 0 0
57 0 2 -0.85 0.779642735535641 13.073941202660018 3.841035425710546 0 0 0
58 0 2 -0.85 8.846697300939494 12.08132483013413 9.595011716083263 0 0 0
59 0 2 -0.85 4.80386731726159 9.072308166961866 9.595011716081045 0 0 0
60 0 2 -0.85 4.822472719213408 16.082957788652312 3.841035425716937 0 0 0
61 0 2 -0.85 3.2393527772393944 14.156826331897289 12.060545865858469 0 0 0
62 0 2 -0.85 6.386987275590161 10.998439634282482 1.375501496013524 0 0 0
63 0 2 -0.85 2.3441572919151765 10.155193362824587 1.3755014960135634 0 0 0
64 0 2 -0.85 7.2821827609198495 15.000072659409986 12.060545865860972 0 0 0
65 0 2 -0.85 6.386987255612545 10.998439656457132 6.306569863243189 0 0 0
66 0 2 -0.85 3.239352757389666 14.156826353822137 7.129478073777453 0 0 0
67 0 2 -0.85 7.282182741074056 15.000072637487035 7.129478073779697 0 0 0
68 0 2 -0.85 2.3441572719362194 10.15519334064324 6.3065698632386145 0 0 0
69 0 2 -0.85 0.7796427316926686 13.07394116407285 15.348988283924658 0 0 0
70 0 2 -0.85 8.846697297097167 12.081324791554357 21.102964574274427 0 0 0
71 0 2 -0.85 4.803867313414546 9.072308205562528 21.10296457428146 0 0 0
72 0 2 -0.85 4.8224727153814655 16.08295782723396 15.348988283930101 0 0 0
73 0 2 -0.85 3.2393527570316674 14.156826359924274 23.56849850398205 0 0 0
74 0 2 -0.85 6.3869872554029214 10.998439662307074 12.883454134149373 0 0 0
75 0 2 -0.85 2.3441572717184718 10.155193334791296 12.883454134148073 0 0 0
76 0 2 -0.85 7.2821827407132105 15.000072631380224 23.568498503983104 0 0 0
77 0 2 -0.85 6.386987275245747 10.998439640389599 17.81452192621516 0 0 0
78 0 2 -0.85 3.239352777026558 14.156826337755119 18.637430136757743 0 0 0
79 0 2 -0.85 7.282182760697026 15.000072653559444 18.637430136750286 0 0 0
80 0 2 -0.85 2.344157291566613 10.155193356722291 17.814521926218887 0 0 0
81 0 2 -0.85 8.865302702899037 5.070675208447962 3.8410354257258756 0 0 0
82 0 2 -0.85 16.9323572683068 4.0780588359349865 9.59501171607937 0 0 0
83 0 2 -0.85 12.889527284618616 1.0690421727690649 9.595011716079084 0 0 0
84 0 2 -0.85 12.908132686586603 8.079691794443374 3.8410354257177266 0 0 0
85 0 2 -0.85 11.325012744597196 6.153560337692118 12.060545865853577 0 0 0
86 0 2 -0.85 14.472647242973744 2.9951736400749303 1.375501496016302 0 0 0
87 0 2 -0.85 10.429817259280615 2.1519273686158567 1.3755014960180145 0 0 0
88 0 2 -0.85 15.367842728280849 6.996806665202946 12.060545865853921 0 0 0
89 0 2 -0.85 14.472647222980095 2.995173662256153 6.306569863241212 0 0 0
90 0 2 -0.85 11.325012724755908 6.153560359608756 7.129478073786916 0 0 0
91 0 2 -0.85 15.367842708435656 6.9968066432744696 7.129478073783303 0 0 0
92 0 2 -0.85 10.429817239297085 2.1519273464475184 6.306569863244822 0 0 0
93 0 2 -0.85 8.865302699057468 5.070675169863823 15.348988283913908 0 0 0
94 0 2 -0.85 16.932357264470827 4.078058797332287 21.102964574288126 0 0 0
95 0 2 -0.85 12.889527280787314 1.069042211342493 21.102964574272615 0 0 0
96 0 2 -0.85 12.908132682738223 8.079691833034184 15.34898828391854 0 0 0
97 0 2 -0.85 11.325012724406886 6.153560365720994 23.568498503996043 0 0 0
98 0 2 -0.85 14.472647222762262 2.9951736681074093 12.883454134146511 0 0 0
99 0 2 -0.85 10.429817239078076 2.1519273405940247 12.883454134150439 0 0 0
100 0 2 -0.85 15.367842708090013 6.996806637178431 23.568498503994746 0 0 0
101 0 2 -0.85 14.472647242609971 2.9951736461673955 17.814521926217434 0 0 0
102 0 2 -0.85 11.325012744384285 6.153560343544817 18.637430136741216 0 0 0
103 0 2 -0.85 15.367842728066874 6.996806659358894 18.637430136748975 0 0 0
104 0 2 -0.85 10.429817258925256 2.151927362503894 17.814521926213015 0 0 0
105 0 2 -0.85 8.865302702896777 13.07394120265957 3.84103542571844 0 0 0
106 0 2 -0.85 16.932357268305374 12.081324830134726 9.595011716080112 0 0 0
107 0 2 -0.85 12.889527284620831 9.072308166961603 9.59501171608332 0 0 0
108 0 2 -0.85 12.90813268658714 16.082957788651175 3.8410354257208743 0 0 0
109 0 2 -0.85 11.325012744599277 14.15682633189632 12.060545865858987 0 0 0
110 0 2 -0.85 14.472647242969412 10.998439634281445 1.3755014960120566 0 0 0
111 0 2 -0.85 10.429817259285098 10.155193362825136 1.3755014960157421 0 0 0
112 0 2 -0.85 15.367842728281659 15.000072659410938 12.060545865858813 0 0 0
113 0 2 -0.85 14.472647222979694 10.998439656457231 6.306569863241611 0 0 0
114 0 2 -0.85 11.325012724753428 14.156826353822225 7.1294780737822565 0 0 0
115 0 2 -0.85 15.367842708438689 15.000072637486602 7.1294780737767205 0 0 0
116 0 2 -0.85 10.42981723930001 10.155193340645626 6.306569863245336 0 0 0
117 0 2 -0.85 8.865302699057098 13.073941164070945 15.348988283925088 0 0 0
118 0 2 -0.85 16.932357264468422 12.081324791553401 21.102964574286034 0 0 0
119 0 2 -0.85 12.889527280788744 9.072308205563932 21.102964574281494 0 0 0
120 0 2 -0.85 12.908132682737484 16.082957827234278 15.348988283926792 0 0 0
121 0 2 -0.85 11.325012724404827 14.156826359922123 23.568498503981985 0 0 0
122 0 2 -0.85 14.472647222759132 10.998439662306167 12.883454134147955 0 0 0
123 0 2 -0.85 10.429817239078353 10.155193334790473 12.883454134149746 0 0 0
124 0 2 -0.85 15.36784270809247 15.000072631380139 23.568498503983967 0 0 0
125 0 2 -0.85 14.472647242606854 10.998439640387014 17.814521926218763 0 0 0
126 0 2 -0.85 11.325012744384905 14.156826337753133 18.637430136750716 0 0 0
127 0 2 -0.85 15.367842728065556 15.000072653561359 18.63743013675815 0 0 0
128 0 2 -0.85 10.42981725892671 10.155193356724073 17.814521926209412 0 0 0
129 0 3 1.7 16.941659967359165 4.57436700290893 23.979952584273384 -1 0 -1
130 0 3 1.7 4.813170016331574 16.579265994202398 0.9640474157213924 0 -1 0
131 0 3 1.7 0.7703400392467974 4.574367047131371 6.718023246944125 0 0 0
132 0 3 1.7 4.813170022934928 16.579265949961616 6.71802324694942 0 -1 0
133 0 3 1.7 0.7703400326356804 4.57436700289619 12.472000000000662 0 0 0
134 0 3 1.7 4.813170016309339 16.57926599420067 12.471999999986163 0 -1 0
135 0 3 1.7 16.941659960743447 4.574366958687328 18.225976753068338 -1 0 0
136 0 3 1.7 4.813170009693627 0.5727340500411711 18.2259767530574 0 0 0
137 0 3 1.7 16.941659967362035 12.57763299709901 0.9640474157172569 -1 0 0
138 0 3 1.7 4.813170016330182 8.575999999990744 23.97995258427465 0 0 -1
139 0 3 1.7 0.7703400392542255 12.577633041321713 6.718023246947724 0 0 0
140 0 3 1.7 4.813170022934569 8.57599995578224 6.718023246937189 0 0 0
141 0 3 1.7 0.7703400326359366 12.577632997098089 12.471999999994473 0 0 0
142 0 3 1.7 4.813170016302664 8.576000000007609 12.471999999999039 0 0 0
143 0 3 1.7 16.94165996074533 12.57763295285981 18.225976753053917 -1 0 0
144 0 3 1.7 4.813170009690669 8.576000044216702 18.22597675307396 0 0 0
145 0 3 1.7 8.85600000000792 4.574367002906863 23.979952584267277 0 0 -1
146 0 3 1.7 12.89882998366915 0.5727340057997721 0.9640474157207211 0 0 0
147 0 3 1.7 8.856000006616012 4.574367047135395 6.7180232469325665 0 0 0
148 0 3 1.7 12.898829990304986 16.579265949962572 6.718023246942659 0 -1 0
149 0 3 1.7 8.856000000000487 4.574367002892993 12.471999999997841 0 0 0
150 0 3 1.7 12.898829983690577 16.579265994200345 12.471999999989054 0 -1 0
151 0 3 1.7 8.855999993387776 4.5743669586878335 18.22597675308797 0 0 0
152 0 3 1.7 12.898829977069141 0.5727340500395924 18.225976753062692 0 0 0
153 0 3 1.7 8.856000000005713 12.577632997098357 0.9640474157157879 0 0 0
154 0 3 1.7 12.89882998366976 8.575999999988733 23.97995258427525 0 0 -1
155 0 3 1.7 8.856000006622862 12.577633041321509 6.718023246934881 0 0 0
156 0 3 1.7 12.898829990301287 8.575999955781963 6.718023246933152 0 0 0
157 0 3 1.7 8.85600000000263 12.577632997102452 12.471999999987943 0 0 0
158 0 3 1.7 12.898829983691135 8.576000000009127 12.471999999998529 0 0 0
159 0 3 1.7 8.855999993388423 12.57763295285878 18.225976753073247 0 0 0
160 0 3 1.7 12.898829977065983 8.576000044213734 18.225976753078385 0 0 0

Velocities

1 0 0 0
2 0 0 0
3 0 0 0
4 0 0 0
5 0 0 0
6 0 0 0
7 0 0 0
8 0 0 0
9 0 0 0
10 0 0 0
11 0 0 0
12 0 0 0
13 0 0 0
14 0 0 0
15 0 0 0
16 0 0 0
17 0 0 0
18 0 0 0
19 0 0 0
20 0 0 0
21 0 0 0
22 0 0 0
23 0 0 0
24 0 0 0
25 0 0 0
26 0 0 0
27 0 0 0
28 0 0 0
29 0 0 0
30 0 0 0
31 0 0 0
32 0 0 0
33 0 0 0
34 0 0 0
35 0 0 0
36 0 0 0
37 0 0 0
38 0 0 0
39 0 0 0
40 0 0 0
41 0 0 0
42 0 0 0
43 0 0 0
44 0 0 0
45 0 0 0
46 0 0 0
47 0 0 0
48 0 0 0
49 0 0 0
50 0 0 0
51 0 0 0
52 0 0 0
53 0 0 0
54 0 0 0
55 0 0 0
56 0 0 0
57 0 0 0
58 0 0 0
59 0 0 0
60 0 0 0
61 0 0 0
62 0 0 0
63 0 0 0
64 0 0 0
65 0 0 0
66 0 0 0
67 0 0 0
68 0 0 0
69 0 0 0
70 0 0 0
71 0 0 0
72 0 0 0
73 0 0 0
74 0 0 0
75 0 0 0
76 0 0 0
77 0 0 0
78 0 0 0
79 0 0 0
80 0 0 0
81 0 0 0
82 0 0 0
83 0 0 0
84 0 0 0
85 0 0 0
86 0 0 0
87 0 0 0
88 0 0 0
89 0 0 0
90 0 0 0
91 0 0 0
92 0 0 0
93 0 0 0
94 0 0 0
95 0 0 0
96 0 0 0
97 0 0 0
98 0 0 0
99 0 0 0
100 0 0 0
101 0 0 0
102 0 0 0
103 0 0 0
104 0 0 0
105 0 0 0
106 0 0 0
107 0 0 0
108 0 0 0
109 0 0 0
110 0 0 0
111 0 0 0
112 0 0 0
113 0 0 0
114 0 0 0
115 0 0 0
116 0 0 0
117 0 0 0
118 0 0 0
119 0 0 0
120 0 0 0
121 0 0 0
122 0 0 0
123 0 0 0
124 0 0 0
125 0 0 0
126 0 0 0
127 0 0 0
128 0 0 0
129 0 0 0
130 0 0 0
131 0 0 0
132 0 0 0
133 0 0 0
134 0 0 0
135 0 0 0
136 0 0 0
137 0 0 0
138 0 0 0
139 0 0 0
140 0 0 0
141 0 0 0
142 0 0 0
143 0 0 0
144 0 0 0
145 0 0 0
146 0 0 0
147 0 0 0
148 0 0 0
149 0 0 0
150 0 0 0
151 0 0 0
152 0 0 0
153 0 0 0
154 0 0 0
155 0 0 0
156 0 0 0
157 0 0 0
158 0 0 0
159 0 0 0
160 0 0 0
