LAMMPS data file via write_data, version 23 Jun 2022, timestep = 3

20 atoms
3 atom types

-0.0002320106613389987 8.856232010661339 xlo xhi
-0.056280000000000004 8.63228 ylo yhi
-0.03281551361585684 12.504815513615856 zlo zhi
0 0 0 xy xz yz

Masses

1 132.904999
2 126.900002
3 204.199997

Pair Coeffs # lj/cut/coul/long

1 0.07728 3.584
2 0.06389 4.014
3 0.001086 3.21

Atoms # full

1 0 1 0.86 4.072674124151156 4.331711023025837 3.1015922431920706 0 0 0
2 0 1 0.86 4.783325875848844 4.2442889769741585 9.370407756807925 0 0 0
3 0 1 0.86 0.3550938651875051 -0.012568976974160685 9.370407756807925 0 0 0
4 0 1 0.86 8.500906134812494 8.588568976974159 3.1015922431920706 0 0 0
5 0 2 -0.57 0.009937152497783534 4.826310809419532 3.1015922431920706 0 0 0
6 0 2 -0.57 8.846062847502218 3.7496891905804652 9.370407756807925 0 0 0
7 0 2 -0.57 4.417830836840877 0.482030809419533 9.370407756807925 0 0 0
8 0 2 -0.57 4.438169163159126 8.093969190580466 3.1015922431920706 0 0 0
9 0 2 -0.57 2.704017290196529 6.00235634997596 12.056642943804713 0 0 0
10 0 2 -0.57 6.151982709803471 2.5736436500240365 0.41535705619529034 0 0 0
11 0 2 -0.57 1.723750699142132 1.6580763499759605 0.41535705619529034 0 0 0
12 0 2 -0.57 7.132249300857867 6.9179236500240355 12.056642943804713 0 0 0
13 0 2 -0.57 6.151982709803471 2.5736436500240365 5.787827430188854 0 0 0
14 0 2 -0.57 2.704017290196529 6.00235634997596 6.684172569811145 0 0 0
15 0 2 -0.57 7.132249300857867 6.9179236500240355 6.684172569811145 0 0 0
16 0 2 -0.57 1.723750699142132 1.6580763499759605 5.787827430188854 0 0 0
17 0 3 0.85 -0.00023201066133899756 4.287999999999999 -0.03281551361585684 0 0 0
18 0 3 0.85 4.428 -0.056280000000000004 -0.03281551361585684 0 0 0
19 0 3 0.85 -0.0002320106613389973 4.287999999999999 6.235999999999998 0 0 0
20 0 3 0.85 4.428 -0.056280000000000004 6.235999999999998 0 0 0

Velocities

1 0 0 0
2 0 0 0
3 0 0 0
4 0 0 0
5 0 0 0
6 0 0 0
7 0 0 0
8 0 0 0
9 0 0 0
10 0 0 0
11 0 0 0
12 0 0 0
13 0 0 0
14 0 0 0
15 0 0 0
16 0 0 0
17 0 0 0
18 0 0 0
19 0 0 0
20 0 0 0
