LAMMPS data file via write_data, version 23 Jun 2022, timestep = 0

160 atoms
3 atom types

0.5763885159552388 17.135611484044528 xlo xhi
0.284729195632501 16.867270804367145 ylo yhi
0.8244917696674677 24.119508230332826 zlo zhi
-0.1338252714236964 0.15979017840021187 0.39636240740986645 xy xz yz

Masses

1 132.904999
2 126.90447
3 204.199997

Pair Coeffs # lj/cut/coul/long

1 0.0898565 3.52101
2 0.0427844 5.04975
3 0.094278 4.043

Atoms # full

1 0 1 0.75 4.524380487267989 4.609332554635654 3.9611498066388777 0 0 0
2 0 1 0.75 5.035519355544368 4.609573167912621 9.886283203979888 0 0 0
3 0 1 0.75 0.91786410119443 16.966793450350465 9.509185501053459 0 -1 0
4 0 1 0.75 8.989932085269174 8.65275972687841 3.8886308069297635 0 0 0
5 0 1 0.75 4.774243210062245 4.727121554368867 15.391599725593297 0 0 0
6 0 1 0.75 5.046733989143948 4.908025289912401 21.319804931870607 0 0 0
7 0 1 0.75 17.260868172664477 0.8512918220650225 21.50223130936564 -1 0 0
8 0 1 0.75 8.792475715221903 9.061600624646415 15.439935028707616 0 0 0
9 0 1 0.75 4.444889834039459 12.96887204453046 3.5917841680711753 0 0 0
10 0 1 0.75 4.521421252757348 12.738537845412965 9.47205207032706 0 0 0
11 0 1 0.75 16.986000241556255 8.984130969986087 9.727005531804583 -1 0 0
12 0 1 0.75 8.695930866435022 16.85456272393585 3.4629823742852053 0 0 0
13 0 1 0.75 4.487042273580582 12.764335993823561 15.245110787908352 0 0 0
14 0 1 0.75 5.058712594441512 13.230651827161111 21.132674894688456 0 0 0
15 0 1 0.75 17.05120766694628 8.883890393310953 20.88496308254536 -1 0 0
16 0 1 0.75 8.846665709650203 16.971010088975294 15.40301450603654 0 0 0
17 0 1 0.75 12.817369575922298 4.1488821615661315 3.534142637974446 0 0 0
18 0 1 0.75 13.040810927799434 4.272543807215697 9.462372394241756 0 0 0
19 0 1 0.75 8.47224446268228 16.871101606875527 9.219566271808455 0 -1 0
20 0 1 0.75 16.94503830299702 8.655341792570228 3.71900237210828 0 0 0
21 0 1 0.75 13.186186049540916 4.544630696324765 15.17221138381468 0 0 0
22 0 1 0.75 13.20390141538253 4.788923210407351 20.778940244723348 0 0 0
23 0 1 0.75 8.451827411096664 16.857788040204227 21.03023760965972 0 -1 0
24 0 1 0.75 17.084331166656394 8.89270595331024 15.707210402542291 0 0 0
25 0 1 0.75 13.194361782341725 12.985747974835839 3.7508510274046007 0 0 0
26 0 1 0.75 13.174192729764497 13.008577380103455 9.73673254367756 0 0 0
27 0 1 0.75 8.726681563656177 8.94837636689572 9.82490153432622 0 0 0
28 0 1 0.75 17.089002533835387 0.6591381370819964 3.4653964890444415 0 1 0
29 0 1 0.75 13.125872665600934 12.970405497112258 15.3381499309767 0 0 0
30 0 1 0.75 13.1829115067815 12.98831380097658 21.332638268480203 0 0 0
31 0 1 0.75 9.123179787019572 8.764099205695072 20.732723568176066 0 0 0
32 0 1 0.75 0.7520691760597481 0.5604831879216748 15.584997679195968 1 1 0
33 0 2 -0.75 0.7050194919808304 4.8548976643211175 3.7160100189531704 0 0 0
34 0 2 -0.75 9.203941520138835 5.03729362384531 9.671719124742475 0 0 0
35 0 2 -0.75 4.586085034092261 16.791577967036012 9.598751015086526 0 -1 0
36 0 2 -0.75 3.9334448523623626 8.325015194835753 3.7623707090384078 0 0 0
37 0 2 -0.75 2.3967722119478996 6.913618976034477 12.036929480783401 0 0 0
38 0 2 -0.75 6.9871598498146685 2.675428133210296 23.65376156896314 0 0 -1
39 0 2 -0.75 2.9192485210874977 3.011603742663431 23.755375981717417 0 0 -1
40 0 2 -0.75 6.643908860707626 6.411358667618705 12.697954249329717 0 0 0
41 0 2 -0.75 6.505109657546114 2.8598960762479293 7.20103626886331 0 0 0
42 0 2 -0.75 3.0960536942568044 6.055097449214647 7.102503961294145 0 0 0
43 0 2 -0.75 7.0551396218483795 6.940689417992549 6.434152043251421 0 0 0
44 0 2 -0.75 2.2616363750353132 2.0397234129346877 6.839539581155034 0 0 0
45 0 2 -0.75 0.7832520430796797 4.804384410323122 15.405381553085368 0 0 0
46 0 2 -0.75 9.49188242097635 5.172684878311366 21.177141252795444 0 0 0
47 0 2 -0.75 4.742558889758609 16.759588963309113 21.307684652570046 0 -1 0
48 0 2 -0.75 4.287639121372977 8.277397048380957 15.479708096087688 0 0 0
49 0 2 -0.75 2.547787161055423 7.308815009654701 23.78824470447861 0 0 0
50 0 2 -0.75 7.160166809110811 2.317070433624763 12.019046253791377 0 0 0
51 0 2 -0.75 3.1140773593712945 2.851315422294728 12.306650439896405 0 0 0
52 0 2 -0.75 6.345832896086568 6.339164120053081 1.015704657703433 0 0 1
53 0 2 -0.75 6.6928992475111535 2.923350205082352 18.86383094609368 0 0 0
54 0 2 -0.75 2.954519886187533 6.685516183944991 18.857920950867225 0 0 0
55 0 2 -0.75 7.021454980333338 6.940419484835622 18.01571902782313 0 0 0
56 0 2 -0.75 2.4738090687024874 2.3846342573450148 18.71273589334877 0 0 0
57 0 2 -0.75 16.931759790909958 12.418208060597753 3.6965690339273762 -1 0 0
58 0 2 -0.75 8.01131290377316 12.72616317963323 9.430137392782324 0 0 0
59 0 2 -0.75 5.115825315521402 9.012287927363923 9.596166192467358 0 0 0
60 0 2 -0.75 4.71690261812523 0.8753500529040393 3.743164927809166 0 1 0
61 0 2 -0.75 2.4136592782182094 15.244283716268665 12.924587360397195 0 0 0
62 0 2 -0.75 6.844533988240735 10.388138879618126 1.4767716782527458 0 0 0
63 0 2 -0.75 3.1519864377974858 11.507139722403792 23.79724229670848 0 0 -1
64 0 2 -0.75 6.69059771705181 14.828294857864748 12.91068167198717 0 0 0
65 0 2 -0.75 6.489641294029518 10.966557317732361 6.173499957094566 0 0 0
66 0 2 -0.75 2.8992078709927487 14.504945765612232 6.4414688012457955 0 0 0
67 0 2 -0.75 6.906859685194909 15.136440452611042 6.271303407131193 0 0 0
68 0 2 -0.75 2.2497498621562135 10.373741604216118 6.975241720745532 0 0 0
69 0 2 -0.75 17.01862146960209 12.592042738411745 15.433701119976025 -1 0 0
70 0 2 -0.75 8.52207809293956 12.78849649697592 21.224568979435347 0 0 0
71 0 2 -0.75 5.431741110768944 9.303618184019935 21.16668752941846 0 0 0
72 0 2 -0.75 5.069951846229232 0.9865381805538422 15.400457703762399 0 1 0
73 0 2 -0.75 2.3463928588343816 15.142147479762826 1.271893249395771 0 0 1
74 0 2 -0.75 6.717527203280761 10.878081931240185 12.839420773529298 0 0 0
75 0 2 -0.75 2.8310384172599727 10.88381620258249 12.385350457906291 0 0 0
76 0 2 -0.75 6.435161558466238 14.595169457494416 1.1499730037845766 0 0 1
77 0 2 -0.75 6.817776826088273 10.9706785951347 17.55788763569807 0 0 0
78 0 2 -0.75 2.9203904100232307 15.022124794613168 17.724361490606356 0 0 0
79 0 2 -0.75 7.040157294543397 15.321180808704725 17.95261911717024 0 0 0
80 0 2 -0.75 2.6878448701361695 10.77379736307728 18.524664918361907 0 0 0
81 0 2 -0.75 8.701216965790532 4.0684245623609225 3.810685402741096 0 0 0
82 0 2 -0.75 16.690966936821297 4.059017007454846 9.582992631702504 0 0 0
83 0 2 -0.75 13.402042830950432 0.4505011809789105 9.57722477008596 0 0 0
84 0 2 -0.75 13.002949036188575 9.244534564653604 3.6611640278118074 0 0 0
85 0 2 -0.75 10.945909633036493 6.741799078003284 13.040220666805906 0 0 0
86 0 2 -0.75 15.144349822962523 2.2727201183784906 1.2030847893395757 0 0 0
87 0 2 -0.75 10.990219010686468 2.801736355535849 24.00355583016949 0 0 -1
88 0 2 -0.75 14.924568726977837 6.553179933855104 12.617295857383258 0 0 0
89 0 2 -0.75 14.90912191830341 2.5147599167389276 6.014339477930809 0 0 0
90 0 2 -0.75 11.171673142401023 6.311910326200176 5.936825641505728 0 0 0
91 0 2 -0.75 15.500884574772842 6.811617446113217 6.661600012146459 0 0 0
92 0 2 -0.75 10.772520658352978 2.2092417856997617 6.848906190558626 0 0 0
93 0 2 -0.75 8.634767567704143 4.175679005573027 15.407905424758255 0 0 0
94 0 2 -0.75 16.73509204320545 4.773703161028117 21.30201006340737 0 0 0
95 0 2 -0.75 13.37579213915731 0.7377326720951516 21.217107462626444 0 0 0
96 0 2 -0.75 13.291594298425553 9.275833288772626 15.365137815527936 0 0 0
97 0 2 -0.75 10.450921161447457 6.927925150097545 1.4114844048568511 0 0 1
98 0 2 -0.75 15.470582558212344 2.2218423361784905 12.87419145454268 0 0 0
99 0 2 -0.75 11.383762452204925 2.9170334846107213 12.326375154495267 0 0 0
100 0 2 -0.75 14.827793278223423 6.470270301894486 0.9975569890362308 0 0 1
101 0 2 -0.75 15.031124038338735 2.7505578391305816 18.04711590475715 0 0 0
102 0 2 -0.75 11.166762657561122 6.699026223429243 17.600361660327234 0 0 0
103 0 2 -0.75 15.293849213347205 6.975666452501575 18.226906151700828 0 0 0
104 0 2 -0.75 10.878004895925656 2.4606449544508378 18.334705551597278 0 0 0
105 0 2 -0.75 9.252639031706703 12.885745842263619 3.720737904174494 0 0 0
106 0 2 -0.75 0.6132711419675614 13.228931787433309 9.541011699878911 1 0 0
107 0 2 -0.75 12.819917594942025 8.123728260862666 9.428478150955645 0 0 0
108 0 2 -0.75 12.213731891347784 16.330280177700736 3.7749745078007453 0 0 0
109 0 2 -0.75 10.821938361658708 15.043175307355144 11.848669122151813 0 0 0
110 0 2 -0.75 15.331163156024576 10.965636179662125 23.885208869764213 0 0 -1
111 0 2 -0.75 11.150885056239439 11.337202956995279 24.065840265482368 0 0 -1
112 0 2 -0.75 14.993080594866653 14.820344572520014 12.931765234525434 0 0 0
113 0 2 -0.75 14.649109207876846 11.069683326256758 6.92875467093605 0 0 0
114 0 2 -0.75 11.01439031569257 14.673066326770446 7.33653358064043 0 0 0
115 0 2 -0.75 15.21568533575272 15.078137750946333 6.395226055183435 0 0 0
116 0 2 -0.75 10.542393468154845 10.454531951415921 6.805921285128177 0 0 0
117 0 2 -0.75 9.224803460703997 13.238649387388355 15.362454309809658 0 0 0
118 0 2 -0.75 1.2537534864891748 13.60201496090721 21.160049652195262 1 0 0
119 0 2 -0.75 12.714048847588767 8.359706636028495 21.269843486851105 0 0 0
120 0 2 -0.75 12.623813505567622 17.021351857451144 15.359565012060001 0 0 0
121 0 2 -0.75 10.52341875443529 15.402963369121364 23.812848641358368 0 0 0
122 0 2 -0.75 15.20141320854189 10.74319077524446 12.10926064046125 0 0 0
123 0 2 -0.75 11.01183294777115 10.970922681640065 12.342603932455333 0 0 0
124 0 2 -0.75 14.999657580565733 15.002180369286089 23.929543676361643 0 0 0
125 0 2 -0.75 14.945789805839516 11.145117528975634 18.634721354350546 0 0 0
126 0 2 -0.75 11.090226873753041 14.751639325134038 18.63018262087522 0 0 0
127 0 2 -0.75 15.428669418793094 15.489274251737022 17.948393737721045 0 0 0
128 0 2 -0.75 10.725410788697191 10.77016600415832 18.338176342926594 0 0 0
129 0 3 1.5 17.224926511023632 5.033541109622306 24.041775588265484 -1 0 -1
130 0 3 1.5 4.702132557348786 0.42158315516121936 0.9630731708366158 0 0 0
131 0 3 1.5 17.07535155370983 4.458904462915404 6.67435864270727 -1 0 0
132 0 3 1.5 4.756761992053629 0.40931231256447487 6.6539660539071335 0 0 0
133 0 3 1.5 0.7484205953629983 4.538377923206869 12.46384059590752 0 0 0
134 0 3 1.5 4.781165095615267 17.00808620616664 12.590055789670972 0 -1 0
135 0 3 1.5 17.196335565760755 4.607034714400137 18.289023178785737 -1 0 0
136 0 3 1.5 4.896555676194116 0.6522455568442269 18.38049464566645 0 0 0
137 0 3 1.5 0.7756335346635759 13.135385747310062 24.0232244610192 0 0 -1
138 0 3 1.5 4.699886269641203 8.609696203977013 0.8744849158508395 0 0 0
139 0 3 1.5 0.5417544985796031 12.791746534058179 6.652454336721142 0 0 0
140 0 3 1.5 4.580405737569321 8.50033393389417 6.662232953226656 0 0 0
141 0 3 1.5 0.5626711061240439 12.953715160731228 12.567743583649387 0 0 0
142 0 3 1.5 4.810001459351226 8.711537601820297 12.63122622218517 0 0 0
143 0 3 1.5 0.6962146528677654 13.137768058237826 18.270022868716563 0 0 0
144 0 3 1.5 4.8339614067788625 8.91915056145955 18.226660652767958 0 0 0
145 0 3 1.5 8.68091897397328 4.639639453938846 0.841541909686252 0 0 0
146 0 3 1.5 12.743003570189206 16.760951120460795 0.8745518926498638 0 -1 0
147 0 3 1.5 8.91051024832747 4.44173089522621 6.703198696254637 0 0 0
148 0 3 1.5 12.865527973615555 16.874843323539977 6.758180104166609 0 -1 0
149 0 3 1.5 8.940881067628965 4.579141276889466 12.540343507015367 0 0 0
150 0 3 1.5 12.92710462020594 16.917125071335708 12.527395790879039 0 -1 0
151 0 3 1.5 8.920801082344186 4.781903524941905 18.230155442579825 0 0 0
152 0 3 1.5 12.937167686592854 17.059341556953335 18.176737114845412 0 -1 0
153 0 3 1.5 8.668296541705175 12.616100028770829 0.9224634699438157 0 0 0
154 0 3 1.5 12.864392879793739 8.687988157186863 0.8656425882467286 0 0 0
155 0 3 1.5 8.725073377184218 12.800889059180486 6.641539361865864 0 0 0
156 0 3 1.5 13.060082596133569 8.564507808765715 6.554988904643634 0 0 0
157 0 3 1.5 8.779765566843876 12.972720120959517 12.421364295581947 0 0 0
158 0 3 1.5 13.076480418248572 8.690997748149005 12.29618861262281 0 0 0
159 0 3 1.5 8.844670746033794 13.027141959580026 18.22299202335302 0 0 0
160 0 3 1.5 13.05041075089532 8.95287930840068 18.237494106194593 0 0 0

Velocities

1 0.00018638911652784737 0.0035461551752841896 -8.506724157822309e-05
2 -0.0012031103880430346 -0.0023521959210880653 0.0007062874865451045
3 0.0016173196370318729 0.0005094932095904678 -6.0151213013372126e-05
4 -0.0011316412537233967 -0.0018844384872560543 0.00023535881217010346
5 0.00044317054358689463 0.0015413911872938014 0.0008873437660680637
6 0.0002649281419417226 -0.0013096390542192277 0.001034578626315689
7 0.0008019677124013496 0.0017022494440231484 -0.0012205033631555685
8 -5.408412934892285e-05 -0.0020437482802776567 0.0016270057452231871
9 -0.00023083649945197313 0.003670126633062256 0.0018115165836822581
10 -0.00024920033262397213 -0.002385771636316221 -0.000497958533604516
11 -0.00011117348544603629 0.0023322749461400184 0.0010734945885773606
12 0.0005066227335554678 -0.00015050607372923435 0.0011745442226748387
13 -0.0013529946881090684 0.003155263211487535 0.000435658100701063
14 0.0009223131850190986 0.0008113526966304211 -0.002407377623521148
15 -0.0026749307263015747 -0.0005681394012801777 0.0012337886052214797
16 0.0018234403959676536 -0.003111316528526833 -0.0001135219043138735
17 -0.00036337202832253213 0.00013133341301388405 -0.0016703469673684667
18 0.00041310690391408323 0.001394741391165216 -0.0005481402987107259
19 -0.0004018095149093571 0.0011921963271542494 -0.0035713297228676393
20 -0.0002281583286841137 -0.0002844287911428392 0.0008316421790046742
21 0.001590096421616458 -0.00187191224389295 -0.0007963551957232847
22 -0.00024703805406375845 -0.0005560887966217381 -0.00044665091813033455
23 0.004074491942658305 -0.0015125712026625928 0.0014406069722386406
24 0.001199552466523469 0.00023846641568602304 9.630132558314805e-06
25 -0.0011694456574598679 -0.0012084818526179736 0.0022947529145453784
26 0.0007518925217386083 0.00019860594315951246 -0.0002853789002310303
27 -0.00042618360827294873 8.751048615814912e-05 -0.0004344231984368694
28 0.0009889088593572927 0.0003158120851564166 -0.0022837315857654516
29 0.00021409575691818089 -0.0015458862918389573 6.31854946853019e-05
30 -5.0848498460455446e-05 -0.0024665559694041416 -0.00038461361255404846
31 0.0008248198903948481 0.0007812261966903756 0.0010819609954216946
32 -0.0003595751585838151 -0.0008063624588729515 0.0005426016974956413
33 -0.0015482193878440826 -0.0023062667196878605 0.0015201900883200737
34 -0.002694394766603469 0.00027077997489252117 -0.00012517049938384439
35 0.0008328718340345261 0.0003278406067995712 0.0003524609733366626
36 0.002700676488664481 -1.7343902933492054e-05 0.002413780602194185
37 0.0010878291589625775 2.0179949217150717e-05 -0.0004702102025881402
38 -0.0015607108487567611 -0.003094880992939361 0.0011899449084938505
39 0.000360203033220968 -0.0010725198743203337 0.0011741792474322954
40 0.0013502253850005987 0.0013483779105875932 -0.0008587983536950501
41 -0.0014458860185228566 -0.0007989710339030676 -0.00013863935485002878
42 0.001087773444701768 -0.0004631105135696711 -0.0003500641405142034
43 1.9309066327333526e-05 -0.0011154771842849934 -0.001099437850529695
44 0.0020769723157876463 0.0016630690268448754 -7.399289614806972e-05
45 0.0011477217224376893 -0.0016202348693948262 0.003274689304293862
46 -8.645853751292517e-05 -0.002677887002889717 -0.0020957817246072467
47 0.0010343709452341739 0.001313541998113784 -0.0015950468155887787
48 -0.0016798598897551338 7.779164046003466e-05 -0.0008621428519902044
49 -0.0010395474142745609 0.0016955253234358543 -0.000168213922698281
50 0.0013600502972704158 -0.0021534807023814865 9.884635218760978e-06
51 -0.0005214505164916494 -0.0024812421139621425 7.636928762625478e-05
52 1.2631499908578111e-06 0.0007947333134938476 0.0012399217104585585
53 -0.0011938831297746573 -0.0022087943889026232 -0.00045458837598457135
54 -0.0004203050180706741 -0.0019792661076050637 -0.0011563467706287031
55 -0.0009259677174518224 -0.0006614193407112328 0.00039432119016838277
56 -0.0008389588410667989 -0.0010066572820113156 0.0009180793934199222
57 0.0021261464703263683 -0.0005585275173151742 0.00042023785480624045
58 -0.0016822509783179186 0.0007272617729227529 0.00025940920594556577
59 0.0010859217646504806 -0.0013334827796359903 -0.0016720453219155515
60 -0.000699732420628901 0.0002207990602333965 -0.00017621175144026075
61 0.0013179061959486098 -0.00042328057014403946 -0.00021858679767772175
62 0.00012551087628771037 9.132355071456143e-05 -0.002893832032456929
63 -0.0025545185579930172 0.0015392769993817727 -0.0010477048687963547
64 0.0015938904151136506 -0.0007256963924526365 -0.0016205016427594146
65 0.0014752264769940019 -0.0014558412096445797 -0.002345657457364817
66 -0.0013270900743968003 0.0002025192171631518 -0.0007410498920912001
67 -0.00012726601065851903 0.0008530168215085286 -0.001201939911279726
68 -0.0006970728340777177 -0.00031152810973623696 -0.00017250222820304709
69 -0.0009522574043261826 0.0010156798415358395 -0.0002587487426677104
70 -0.000473812111381989 0.002409347731281971 -0.0005079431769391071
71 0.0019904654531221933 4.833325645943761e-05 0.0007342401543090051
72 0.0004084016927514694 0.001546524528519586 0.0003418622173332802
73 0.000692653733827875 0.001225454143878603 0.0007736914529759039
74 0.0014695319667072046 -0.0008038672505168462 0.0018944470121543455
75 -0.0008878593554974264 0.0026106560008673885 -0.0009912565208466063
76 0.0009727026769435028 0.0001146319798164887 0.0012744896980520807
77 0.0013845194017408958 -0.0020277635718137254 -0.00189457566155777
78 0.0017585918791013346 0.0021325224270670375 -0.0005135514366176525
79 -0.0009330199884656736 0.00034875353756736225 -0.0006458471701532115
80 0.0013930144119258599 0.0028608627513817698 -0.0004617836575735645
81 0.0002711515274184103 -0.0021653044507533217 -0.0006613643749490741
82 -0.0004200240645559073 -7.762053489368256e-05 0.0007654736464573184
83 -0.00154770856297629 0.0016965700340298253 0.0018516998163213313
84 -0.002585604702712562 0.0010929767654984746 0.0011599407013894985
85 -0.001662268195523342 0.0018552504261802188 -0.0018159683034270338
86 -0.0013512444828153605 5.590022752022264e-05 0.001779841513883111
87 0.002042576966037255 -0.0021865572836494633 -6.571678776186094e-05
88 -0.0024538274361016184 2.962696239802626e-05 0.00027313786976333683
89 0.0015494357101933154 0.0014203734341897397 -0.0008633221335740946
90 -0.001383369319959263 -0.0010627811467951848 -0.0008628920838090836
91 -0.0008971842691085191 -0.0015480571323516334 0.0001778758068899586
92 -0.0030890588300226595 -0.0028367246322410504 0.0007493405470968297
93 -0.0011060818702988715 -0.0005072545911252092 -0.0001627533091279765
94 -0.0006590149375388883 -0.0006478340182337676 -0.0006275035916393898
95 -0.00015122873233136699 0.0011708679830986545 -0.00026186784060639075
96 -0.0006972998323899988 0.0012836500955197144 0.0010555518560087117
97 -0.0005765732184683422 0.0014755747938717285 -0.00012469593078337656
98 -0.0007966387745615775 9.801821480950137e-05 0.0010966467391850536
99 0.00026734282687042755 -0.0004308033576070018 -0.0013409683100448742
100 0.002095180160605199 0.0016961941336959068 -0.0007140154017935032
101 0.0024411498021141677 -6.43590310748735e-05 -8.274137281298618e-05
102 -0.001518563363205366 0.00010890592801145306 -0.00041393843009161513
103 0.0017840633316474818 -0.0002928072873929239 0.00033089624026635587
104 -0.001401106529377526 -0.0011838042522962068 -0.0007924578999118911
105 -0.0036043400743701612 -0.0008592582177054218 0.00048765361408846134
106 -0.0006285023243150796 0.00012102679193582385 -0.0005824973320896978
107 0.00019018277334816657 0.000393239994027124 -0.0009589035397318564
108 -0.0029795291090640905 0.0008133397425028987 0.0017851401048589832
109 0.0004235464923984425 0.0012170640788319652 0.002504992527142758
110 0.0021411748905441953 -0.0020123351733700675 -0.002440277585344056
111 0.0001222512546687652 -0.00010644869089171769 0.0005748490556722238
112 -0.0010982794619773218 0.0013366168224038522 -0.0011590249786692648
113 -0.0013525318477378885 0.002639727515418595 -0.0020598615618944638
114 -0.000798760693691333 0.0005059163977211427 -2.1285320276113973e-05
115 -0.001656770983600781 0.0011765869479246122 0.00039407552331475023
116 0.0007040518839335414 0.001383359120699099 -0.0017635477423799026
117 0.0008023911028543381 0.0021147404916999897 -0.0003940749679178467
118 -0.0015868676363281074 -0.0004895978162625058 -6.62351352106422e-05
119 -0.0015972525962405354 0.0009937325907483556 0.0012290426118380553
120 0.0003996791023861345 0.001043603240539384 -0.0011342779032807223
121 2.0773649670548663e-05 0.0006377204860636813 -0.0021904414304609937
122 -0.002206840220101814 0.0002503274576677466 0.0003851353695372636
123 -0.001525666091844338 -0.001545838563011093 -0.0024332846501171623
124 -0.001470600393903028 3.7379385077331176e-05 -0.000935623453508403
125 -0.0004899956776628549 0.0025893426804919945 0.00017774895243929923
126 0.002828071277297711 0.0009297657363267544 0.0008592614119916383
127 0.00027899835303661353 -0.0007660427130601269 -0.00105751325977177
128 0.0012557935764776177 0.001963541151382312 0.0006309851345293199
129 -0.00033273902809453356 0.0005930136585727583 0.00010707257701162654
130 -0.0005027296962653542 -0.0005087128479200018 0.0006825884280561167
131 0.0008054297756796034 0.0008337011468886247 -0.000580432587304477
132 0.00036962008721930684 0.00029082772059542373 -0.00018041405347108276
133 -0.0001955670050372599 -0.0003253648213693746 -0.001574134958204767
134 -0.00039095809533570255 0.0004240647954350458 -0.00019078266667154505
135 0.0004949895732372271 -6.405909205713675e-05 -7.00474020980401e-05
136 0.0011188910780554535 0.00020042056505047463 -0.0010646178653340487
137 -0.001196451240995148 0.002396739332750765 0.0011337939061345748
138 -0.00020879146188619002 -0.0020417393410461482 0.001059906542495038
139 -0.0004792446109718601 -2.8570116104752232e-05 0.00046070997533530325
140 -0.0009325209403788586 0.0007808780580880951 -7.987728209906852e-05
141 -0.0020536547013469894 0.0005358998422698615 0.000640361590561125
142 -0.0005887250992981186 0.0005037063601593206 0.0020822063263253674
143 0.0006350544946433716 9.46856552375928e-05 0.00025979836052395736
144 0.00012369867459915076 -0.00027927863050065737 -0.0008266795463947649
145 -0.0004101677841435594 -0.0002117308027994728 -0.00048352002823880217
146 0.0019253640350158502 -0.0007219556766242711 0.000882808218751401
147 -0.000991789095441528 0.0008851727834212514 -0.00016266240828481988
148 0.0018383473640878143 3.531652652045878e-05 0.0004377725885406087
149 0.0005938085487982039 -0.0012900268258665183 0.0022482042552463546
150 0.0007709293816065108 -0.0008850199310301752 0.0022694924487016246
151 -0.0005428383492839473 0.0009019977048071331 0.0015842550142908377
152 -0.0023262740126471044 0.0002352647428761424 0.0003864845010680761
153 -8.839546445822126e-05 -0.0001823987613972685 -0.0026767647279644564
154 0.0011444981559516846 -0.00029562175028567634 0.0007906330716704029
155 0.001185791060096949 -0.0008109754822144608 -0.00029642631343354764
156 0.002088316412777508 0.0008138260204841784 2.118926796221857e-05
157 0.0014401010285492782 -9.558426664428266e-05 0.00258799175606008
158 0.0006808524280026872 -0.001489439714135629 -0.0004093638566767639
159 0.0019384532439675572 -0.002236213478856095 9.550022863430069e-05
160 0.0005760068253589715 -0.0011308142386739228 -0.00011751279928734415
