LAMMPS data file via write_data, version 23 Jun 2022, timestep = 8

160 atoms
3 atom types

0.6871656192560127 17.024834380743982 xlo xhi
0.48067440234075814 16.671325597659244 ylo yhi
0.8334129943287918 24.110587005671206 zlo zhi
0 0 0 xy xz yz

Masses

1 132.904999
2 126.90447
3 204.199997

Pair Coeffs # lj/cut/coul/long

1 0.0898565 3.52101
2 0.0427844 5.04975
3 0.094278 4.043

Atoms # full

1 0 1 0.75 4.4443934139953765 4.569437325300125 3.7430599017780777 0 0 0
2 0 1 0.75 5.098772192334116 4.487237068661762 9.562353408057781 0 0 0
3 0 1 0.75 1.0143550019570162 0.5217745348461675 9.56235340805979 0 0 0
4 0 1 0.75 8.528810604370303 8.534899875868991 3.7430599017797186 0 0 0
5 0 1 0.75 4.444393426923842 4.56943733367383 15.38164659194435 0 0 0
6 0 1 0.75 5.098772205256491 4.487237077038076 21.200940098220702 0 0 0
7 0 1 0.75 1.0143550148889395 0.5217745264749616 21.20094009822004 0 0 0
8 0 1 0.75 8.52881061729649 8.5348998674975 15.38164659194178 0 0 0
9 0 1 0.75 4.4443934140008485 12.664762922962723 3.743059901777903 0 0 0
10 0 1 0.75 5.098772192333349 12.582562666331162 9.56235340806103 0 0 0
11 0 1 0.75 1.0143550019590983 8.61710013250366 9.562353408058398 0 0 0
12 0 1 0.75 8.5288106043721 16.630225473528682 3.7430599017828503 0 0 0
13 0 1 0.75 4.444393426920526 12.664762931335297 15.381646591941708 0 0 0
14 0 1 0.75 5.098772205258957 12.582562674698712 21.200940098220578 0 0 0
15 0 1 0.75 1.0143550148866134 8.617100124128726 21.20094009821998 0 0 0
16 0 1 0.75 8.528810617294557 16.630225465154023 15.381646591938162 0 0 0
17 0 1 0.75 12.613227794746678 4.5694373252977085 3.7430599017818604 0 0 0
18 0 1 0.75 13.267606573076764 4.48723706865926 9.56235340805897 0 0 0
19 0 1 0.75 9.183189382710925 0.5217745348446892 9.562353408059625 0 0 0
20 0 1 0.75 16.69764498511308 8.534899875864177 3.7430599017792128 0 0 0
21 0 1 0.75 12.613227807664378 4.569437333672578 15.381646591936532 0 0 0
22 0 1 0.75 13.267606586004517 4.487237077037999 21.200940098223082 0 0 0
23 0 1 0.75 9.183189395630835 0.5217745264738207 21.200940098220446 0 0 0
24 0 1 0.75 16.69764499803795 8.534899867498437 15.381646591942816 0 0 0
25 0 1 0.75 12.613227794744668 12.664762922964089 3.743059901780651 0 0 0
26 0 1 0.75 13.2676065730753 12.582562666332667 9.562353408061242 0 0 0
27 0 1 0.75 9.183189382709495 8.617100132502502 9.562353408062444 0 0 0
28 0 1 0.75 16.697644985110884 16.630225473531624 3.7430599017810104 0 0 0
29 0 1 0.75 12.61322780766291 12.664762931336098 15.381646591938184 0 0 0
30 0 1 0.75 13.26760658600398 12.58256267469831 21.200940098221206 0 0 0
31 0 1 0.75 9.183189395630666 8.617100124130095 21.200940098217213 0 0 0
32 0 1 0.75 16.697644998035145 16.630225465152268 15.3816465919386 0 0 0
33 0 2 -0.75 0.6965509144558701 5.030346341461913 3.743059621448716 0 0 0
34 0 2 -0.75 8.8466147086217 4.026328098972511 9.562353123037214 0 0 0
35 0 2 -0.75 4.762197518251726 0.9826835045418663 9.562353123041706 0 0 0
36 0 2 -0.75 4.780968104830982 8.073990859708854 3.7430596214497727 0 0 0
37 0 2 -0.75 3.1815741516585256 6.125682823915769 12.055868311611457 0 0 0
38 0 2 -0.75 6.3615914873010855 2.9309915509837996 1.2495446363146478 0 0 0
39 0 2 -0.75 2.2771742969135356 2.0780200525237382 1.2495446363143905 0 0 0
40 0 2 -0.75 7.265991342027471 6.978654377260034 12.05586831160976 0 0 0
41 0 2 -0.75 6.361591467746701 2.9309915726918145 6.236575075892318 0 0 0
42 0 2 -0.75 3.1815741322562605 6.125682845339408 7.068838402613571 0 0 0
43 0 2 -0.75 7.26599132262463 6.97865435583845 7.068838402610223 0 0 0
44 0 2 -0.75 2.277174277368332 2.078020030818322 6.2365750758918725 0 0 0
45 0 2 -0.75 0.6965509106308513 5.030346303371169 15.381646876959733 0 0 0
46 0 2 -0.75 8.84661470480018 4.026328060872137 21.200940378554243 0 0 0
47 0 2 -0.75 4.762197514426415 0.9826835426324277 21.2009403785503 0 0 0
48 0 2 -0.75 4.78096810100063 8.07399089780079 15.381646876958708 0 0 0
49 0 2 -0.75 3.1815741319646147 6.1256828513625665 23.694455363694278 0 0 0
50 0 2 -0.75 6.361591467593431 2.9309915784274367 12.888131688393669 0 0 0
51 0 2 -0.75 2.277174277226176 2.0780200250848173 12.888131688394386 0 0 0
52 0 2 -0.75 7.265991322338949 6.978654349811237 23.6944553636965 0 0 0
53 0 2 -0.75 6.361591487005477 2.9309915570041407 17.87516159738518 0 0 0
54 0 2 -0.75 3.181574151512854 6.125682829653273 18.707424924097474 0 0 0
55 0 2 -0.75 7.2659913418840025 6.978654371519606 18.707424924100224 0 0 0
56 0 2 -0.75 2.277174296625752 2.078020046504087 17.875161597385322 0 0 0
57 0 2 -0.75 0.6965509144595922 13.12567193912512 3.7430596214506675 0 0 0
58 0 2 -0.75 8.846614708621193 12.12165369662251 9.562353123032656 0 0 0
59 0 2 -0.75 4.7621975182536955 9.078009102199703 9.562353123037878 0 0 0
60 0 2 -0.75 4.780968104827765 16.16931645736227 3.7430596214490013 0 0 0
61 0 2 -0.75 3.1815741516617386 14.221008421573424 12.05586831161249 0 0 0
62 0 2 -0.75 6.361591487293707 11.026317148641137 1.2495446363142373 0 0 0
63 0 2 -0.75 2.2771742969211037 10.173345650190663 1.2495446363140201 0 0 0
64 0 2 -0.75 7.265991342027157 15.073979974917384 12.055868311613349 0 0 0
65 0 2 -0.75 6.361591467745137 11.026317170347147 6.236575075896618 0 0 0
66 0 2 -0.75 3.1815741322493576 14.221008442990149 7.068838402605869 0 0 0
67 0 2 -0.75 7.2659913226265855 15.07397995349051 7.068838402604967 0 0 0
68 0 2 -0.75 2.277174277371668 10.173345628484542 6.236575075895981 0 0 0
69 0 2 -0.75 0.6965509106297082 13.125671901030156 15.381646876962636 0 0 0
70 0 2 -0.75 8.846614704799622 12.121653658537689 21.200940378552573 0 0 0
71 0 2 -0.75 4.762197514426001 9.078009140296617 21.200940378552232 0 0 0
72 0 2 -0.75 4.780968101001307 16.169316495460173 15.38164687695925 0 0 0
73 0 2 -0.75 3.1815741319586213 14.221008449017091 23.69445536369483 0 0 0
74 0 2 -0.75 6.361591467592341 11.026317176083369 12.88813168839121 0 0 0
75 0 2 -0.75 2.2771742772258623 10.173345622737118 12.88813168839071 0 0 0
76 0 2 -0.75 7.265991322341883 15.073979947470121 23.694455363693425 0 0 0
77 0 2 -0.75 6.3615914870011 11.026317154664659 17.875161597387077 0 0 0
78 0 2 -0.75 3.181574151510444 14.22100842731032 18.707424924102995 0 0 0
79 0 2 -0.75 7.265991341889657 15.07397996917848 18.707424924103194 0 0 0
80 0 2 -0.75 2.277174296631535 10.173345644163936 17.875161597386946 0 0 0
81 0 2 -0.75 8.865385295199472 5.030346341464722 3.7430596214459255 0 0 0
82 0 2 -0.75 17.015449089375977 4.026328098972985 9.562353123041692 0 0 0
83 0 2 -0.75 12.931031898997626 0.982683504541336 9.562353123040152 0 0 0
84 0 2 -0.75 12.94980248556979 8.07399085970659 3.7430596214479626 0 0 0
85 0 2 -0.75 11.350408532402122 6.125682823917153 12.055868311613294 0 0 0
86 0 2 -0.75 14.530425868040446 2.9309915509815525 1.2495446363133222 0 0 0
87 0 2 -0.75 10.44600867765536 2.0780200525305057 1.249544636311655 0 0 0
88 0 2 -0.75 15.434825722780618 6.978654377261865 12.055868311613088 0 0 0
89 0 2 -0.75 14.530425848492136 2.9309915726898583 6.2365750758895855 0 0 0
90 0 2 -0.75 11.350408512994496 6.125682845339863 7.068838402607253 0 0 0
91 0 2 -0.75 15.434825703371041 6.978654355840771 7.068838402611426 0 0 0
92 0 2 -0.75 10.4460086581069 2.0780200308246264 6.236575075889711 0 0 0
93 0 2 -0.75 8.865385291374489 5.030346303370762 15.381646876961442 0 0 0
94 0 2 -0.75 17.01544908554169 4.026328060871667 21.20094037854936 0 0 0
95 0 2 -0.75 12.931031895168909 0.9826835426333602 21.20094037854843 0 0 0
96 0 2 -0.75 12.949802481750119 8.073990897799476 15.381646876963789 0 0 0
97 0 2 -0.75 11.350408512703538 6.125682851359607 23.694455363696573 0 0 0
98 0 2 -0.75 14.530425848345113 2.9309915784287246 12.888131688397868 0 0 0
99 0 2 -0.75 10.44600865796437 2.0780200250834926 12.888131688397204 0 0 0
100 0 2 -0.75 15.434825703078795 6.97865434981418 23.694455363693532 0 0 0
101 0 2 -0.75 14.530425867748 2.930991557005677 17.87516159738599 0 0 0
102 0 2 -0.75 11.3504085322595 6.125682829650714 18.70742492409883 0 0 0
103 0 2 -0.75 15.434825722627076 6.97865437151967 18.70742492409737 0 0 0
104 0 2 -0.75 10.446008677372953 2.078020046503839 17.875161597388548 0 0 0
105 0 2 -0.75 8.86538529519884 13.125671939122073 3.743059621448642 0 0 0
106 0 2 -0.75 17.015449089373877 12.121653696623534 9.56235312303369 0 0 0
107 0 2 -0.75 12.93103189899884 9.078009102199443 9.562353123037143 0 0 0
108 0 2 -0.75 12.949802485575896 16.16931645736343 3.7430596214464704 0 0 0
109 0 2 -0.75 11.350408532402572 14.221008421571863 12.05586831161448 0 0 0
110 0 2 -0.75 14.530425868037089 11.02631714864083 1.249544636313131 0 0 0
111 0 2 -0.75 10.446008677662459 10.173345650187988 1.2495446363139366 0 0 0
112 0 2 -0.75 15.434825722780227 15.073979974917046 12.055868311614772 0 0 0
113 0 2 -0.75 14.530425848491607 11.02631717034745 6.236575075894581 0 0 0
114 0 2 -0.75 11.350408512991763 14.22100844298846 7.068838402604921 0 0 0
115 0 2 -0.75 15.434825703379543 15.073979953490893 7.068838402601572 0 0 0
116 0 2 -0.75 10.446008658110102 10.173345628481362 6.236575075894347 0 0 0
117 0 2 -0.75 8.865385291371705 13.12567190103223 15.381646876963867 0 0 0
118 0 2 -0.75 17.015449085544336 12.121653658536749 21.200940378551955 0 0 0
119 0 2 -0.75 12.931031895170246 9.078009140295316 21.200940378551028 0 0 0
120 0 2 -0.75 12.949802481747174 16.169316495460826 15.381646876964572 0 0 0
121 0 2 -0.75 11.350408512701533 14.221008449015972 23.694455363692203 0 0 0
122 0 2 -0.75 14.530425848342395 11.026317176080862 12.888131688394367 0 0 0
123 0 2 -0.75 10.446008657968175 10.1733456227381 12.888131688390986 0 0 0
124 0 2 -0.75 15.43482570308724 15.073979947470997 23.694455363692356 0 0 0
125 0 2 -0.75 14.530425867746175 11.026317154662534 17.87516159738594 0 0 0
126 0 2 -0.75 11.350408532253851 14.221008427311874 18.70742492410362 0 0 0
127 0 2 -0.75 15.434825722633002 15.073979969179776 18.707424924103318 0 0 0
128 0 2 -0.75 10.446008677376259 10.173345644164115 17.8751615973887 0 0 0
129 0 3 1.5 0.6871656192583319 4.528337201176135 24.110587005663177 0 0 -1
130 0 3 1.5 4.771582809629423 0.48067440234696684 24.110587005663167 0 0 -1
131 0 3 1.5 0.687165625865774 4.528337245363854 6.652706073042595 0 0 0
132 0 3 1.5 4.7715828162465455 16.671325553467636 6.652706073042034 0 -1 0
133 0 3 1.5 17.024834380732308 4.528337201165428 12.47199999998958 -1 0 0
134 0 3 1.5 4.771582809631566 16.671325597656377 12.471999999991372 0 -1 0
135 0 3 1.5 17.024834374133416 4.528337156979085 18.291293926976458 -1 0 0
136 0 3 1.5 4.771582803012531 0.4806744465377348 18.291293926972656 0 0 0
137 0 3 1.5 17.024834380738643 12.623662798824675 24.11058700566131 -1 0 -1
138 0 3 1.5 4.771582809626462 8.57599999999529 24.110587005663614 0 0 -1
139 0 3 1.5 0.6871656258638407 12.623662843026851 6.652706073048919 0 0 0
140 0 3 1.5 4.771582816241396 8.575999955799775 6.652706073031655 0 0 0
141 0 3 1.5 17.024834380738834 12.62366279883718 12.471999999995456 -1 0 0
142 0 3 1.5 4.771582809631181 8.57600000000126 12.472000000001017 0 0 0
143 0 3 1.5 17.024834374130286 12.62366275463109 18.29129392696345 -1 0 0
144 0 3 1.5 4.771582803012534 8.576000044190286 18.291293926974475 0 0 0
145 0 3 1.5 8.855999999999511 4.528337201171037 24.110587005660125 0 0 -1
146 0 3 1.5 12.940417190373388 0.48067440234394204 24.110587005668375 0 0 -1
147 0 3 1.5 8.856000006622082 4.528337245360016 6.652706073046965 0 0 0
148 0 3 1.5 12.94041719698278 16.671325553467025 6.652706073048378 0 -1 0
149 0 3 1.5 8.85600000000564 4.5283372011676875 12.471999999993551 0 0 0
150 0 3 1.5 12.940417190371178 16.671325597657603 12.471999999983145 0 -1 0
151 0 3 1.5 8.855999993381142 4.5283371569807205 18.291293926968553 0 0 0
152 0 3 1.5 12.940417183756734 0.4806744465334856 18.291293926969242 0 0 0
153 0 3 1.5 8.855999999998996 12.623662798827597 24.110587005663348 0 0 -1
154 0 3 1.5 12.940417190377119 8.575999999999025 24.110587005664705 0 0 -1
155 0 3 1.5 8.856000006622137 12.623662843034994 6.65270607304704 0 0 0
156 0 3 1.5 12.94041719698962 8.575999955802615 6.652706073036862 0 0 0
157 0 3 1.5 8.856000000009129 12.623662798834177 12.471999999998177 0 0 0
158 0 3 1.5 12.940417190366217 8.575999999999373 12.471999999994521 0 0 0
159 0 3 1.5 8.85599999338735 12.62366275462855 18.291293926959916 0 0 0
160 0 3 1.5 12.9404171837511 8.57600004419675 18.2912939269748 0 0 0

Velocities

1 0 0 0
2 0 0 0
3 0 0 0
4 0 0 0
5 0 0 0
6 0 0 0
7 0 0 0
8 0 0 0
9 0 0 0
10 0 0 0
11 0 0 0
12 0 0 0
13 0 0 0
14 0 0 0
15 0 0 0
16 0 0 0
17 0 0 0
18 0 0 0
19 0 0 0
20 0 0 0
21 0 0 0
22 0 0 0
23 0 0 0
24 0 0 0
25 0 0 0
26 0 0 0
27 0 0 0
28 0 0 0
29 0 0 0
30 0 0 0
31 0 0 0
32 0 0 0
33 0 0 0
34 0 0 0
35 0 0 0
36 0 0 0
37 0 0 0
38 0 0 0
39 0 0 0
40 0 0 0
41 0 0 0
42 0 0 0
43 0 0 0
44 0 0 0
45 0 0 0
46 0 0 0
47 0 0 0
48 0 0 0
49 0 0 0
50 0 0 0
51 0 0 0
52 0 0 0
53 0 0 0
54 0 0 0
55 0 0 0
56 0 0 0
57 0 0 0
58 0 0 0
59 0 0 0
60 0 0 0
61 0 0 0
62 0 0 0
63 0 0 0
64 0 0 0
65 0 0 0
66 0 0 0
67 0 0 0
68 0 0 0
69 0 0 0
70 0 0 0
71 0 0 0
72 0 0 0
73 0 0 0
74 0 0 0
75 0 0 0
76 0 0 0
77 0 0 0
78 0 0 0
79 0 0 0
80 0 0 0
81 0 0 0
82 0 0 0
83 0 0 0
84 0 0 0
85 0 0 0
86 0 0 0
87 0 0 0
88 0 0 0
89 0 0 0
90 0 0 0
91 0 0 0
92 0 0 0
93 0 0 0
94 0 0 0
95 0 0 0
96 0 0 0
97 0 0 0
98 0 0 0
99 0 0 0
100 0 0 0
101 0 0 0
102 0 0 0
103 0 0 0
104 0 0 0
105 0 0 0
106 0 0 0
107 0 0 0
108 0 0 0
109 0 0 0
110 0 0 0
111 0 0 0
112 0 0 0
113 0 0 0
114 0 0 0
115 0 0 0
116 0 0 0
117 0 0 0
118 0 0 0
119 0 0 0
120 0 0 0
121 0 0 0
122 0 0 0
123 0 0 0
124 0 0 0
125 0 0 0
126 0 0 0
127 0 0 0
128 0 0 0
129 0 0 0
130 0 0 0
131 0 0 0
132 0 0 0
133 0 0 0
134 0 0 0
135 0 0 0
136 0 0 0
137 0 0 0
138 0 0 0
139 0 0 0
140 0 0 0
141 0 0 0
142 0 0 0
143 0 0 0
144 0 0 0
145 0 0 0
146 0 0 0
147 0 0 0
148 0 0 0
149 0 0 0
150 0 0 0
151 0 0 0
152 0 0 0
153 0 0 0
154 0 0 0
155 0 0 0
156 0 0 0
157 0 0 0
158 0 0 0
159 0 0 0
160 0 0 0
