ITEM: TIMESTEP
0
ITEM: NUMBER OF ATOMS
160
ITEM: BOX BOUNDS xy xz yz pp pp pp
6.3187782271582771e-01 2.0236522177284172e+01 0.0000000000000000e+00
2.3913011992998523e-01 1.8922869880070014e+01 0.0000000000000000e+00
7.1044000000000007e-01 1.7050559999999994e+01 0.0000000000000000e+00
ITEM: ATOMS id type xs ys zs
1 1 0.209234 0.0757525 0.691971
2 1 0.0668575 0.183386 0.182984
3 1 0.290025 0.194388 0.284028
4 1 0.455385 0.0595776 0.815704
5 1 0.198101 0.31139 0.690475
6 1 0.0454668 0.435834 0.182462
7 1 0.284873 0.439263 0.309456
8 1 0.461687 0.311594 0.813419
9 1 0.214818 0.561935 0.67703
10 1 0.0423736 0.688202 0.186438
11 1 0.309375 0.680974 0.309369
12 1 0.439862 0.55987 0.809644
13 1 0.209756 0.814815 0.683343
14 1 0.0544921 0.940002 0.186134
15 1 0.290456 0.943017 0.298658
16 1 0.458104 0.812673 0.800952
17 1 0.706406 0.0841059 0.704054
18 1 0.536695 0.189254 0.196507
19 1 0.796168 0.178602 0.304065
20 1 0.950825 0.0624516 0.798695
21 1 0.705153 0.315002 0.693148
22 1 0.55382 0.43966 0.193259
23 1 0.794564 0.445912 0.319792
24 1 0.966181 0.315224 0.813932
25 1 0.691571 0.565663 0.68955
26 1 0.542602 0.700413 0.188289
27 1 0.804536 0.689739 0.320054
28 1 0.955869 0.559954 0.80183
29 1 0.702194 0.805687 0.677773
30 1 0.529705 0.941421 0.184221
31 1 0.783184 0.930689 0.299914
32 1 0.959585 0.800037 0.80879
33 2 0.0875883 0.0565573 0.0289586
34 2 0.167127 0.202131 0.536446
35 2 0.405395 0.180772 0.970517
36 2 0.326651 0.0714995 0.483318
37 2 0.155808 0.0593277 0.303843
38 2 0.0923409 0.183561 0.802985
39 2 0.358459 0.19317 0.694226
40 2 0.401922 0.0574587 0.191009
41 2 0.992717 0.0742247 0.589684
42 2 0.236838 0.183599 0.0972097
43 2 0.492377 0.186374 0.401653
44 2 0.247258 0.0625145 0.904008
45 2 0.0877788 0.319454 0.0104613
46 2 0.159967 0.445324 0.506021
47 2 0.411103 0.441013 0.981994
48 2 0.337776 0.304661 0.465401
49 2 0.162034 0.311632 0.31802
50 2 0.0962889 0.449374 0.80073
51 2 0.345789 0.432048 0.690252
52 2 0.409806 0.317936 0.197309
53 2 0.995861 0.32686 0.593805
54 2 0.243832 0.437102 0.0960948
55 2 0.493597 0.435487 0.403468
56 2 0.255986 0.304223 0.914931
57 2 0.0847691 0.578448 0.0145568
58 2 0.164017 0.690658 0.515742
59 2 0.425359 0.675666 0.992136
60 2 0.334187 0.560662 0.484332
61 2 0.150628 0.565864 0.292109
62 2 0.103088 0.683699 0.796631
63 2 0.352699 0.69178 0.709992
64 2 0.404907 0.555636 0.206478
65 2 0.00201917 0.57706 0.597279
66 2 0.253588 0.682638 0.100189
67 2 0.486373 0.683897 0.407349
68 2 0.259254 0.557808 0.903896
69 2 0.0839088 0.807729 0.0154839
70 2 0.168681 0.94569 0.530697
71 2 0.417759 0.9415 0.981384
72 2 0.329658 0.809973 0.486068
73 2 0.158055 0.813894 0.319617
74 2 0.0888919 0.936838 0.802261
75 2 0.343211 0.936005 0.702431
76 2 0.397874 0.818134 0.193779
77 2 0.998476 0.810589 0.59467
78 2 0.24414 0.928013 0.096558
79 2 0.48862 0.937129 0.403896
80 2 0.262229 0.811514 0.907964
81 2 0.581128 0.0728345 0.0236176
82 2 0.655357 0.189462 0.529509
83 2 0.924615 0.18141 0.980038
84 2 0.83231 0.0588892 0.468555
85 2 0.650982 0.0597829 0.30449
86 2 0.603346 0.187018 0.812299
87 2 0.850784 0.195023 0.695261
88 2 0.90735 0.0541618 0.199856
89 2 0.495743 0.0514701 0.597046
90 2 0.750238 0.197572 0.101936
91 2 0.00534068 0.19292 0.405625
92 2 0.759755 0.0640184 0.908025
93 2 0.580833 0.311343 0.0179454
94 2 0.663577 0.437146 0.515295
95 2 0.921691 0.431247 0.989047
96 2 0.828478 0.314028 0.474989
97 2 0.646499 0.305956 0.304059
98 2 0.605073 0.443513 0.802846
99 2 0.834799 0.433853 0.695542
100 2 0.919068 0.304248 0.194229
101 2 0.502178 0.312155 0.593353
102 2 0.753005 0.421431 0.114335
103 2 0.981211 0.444155 0.403892
104 2 0.748563 0.309741 0.905536
105 2 0.594865 0.553275 0.0341119
106 2 0.654756 0.680923 0.520181
107 2 0.913124 0.685162 0.977983
108 2 0.832811 0.568567 0.482768
109 2 0.64901 0.572224 0.302502
110 2 0.593192 0.685619 0.805959
111 2 0.842359 0.682087 0.701225
112 2 0.906166 0.553643 0.201751
113 2 0.500178 0.562828 0.603601
114 2 0.749438 0.67583 0.0991735
115 2 0.991003 0.678229 0.386664
116 2 0.756668 0.548345 0.912052
117 2 0.585278 0.814825 0.0288991
118 2 0.658322 0.932797 0.513619
119 2 0.923537 0.928359 0.978759
120 2 0.826264 0.804824 0.487818
121 2 0.643655 0.810549 0.295526
122 2 0.596386 0.938678 0.804264
123 2 0.844721 0.939748 0.69303
124 2 0.912213 0.813435 0.189265
125 2 0.506146 0.81093 0.593273
126 2 0.756383 0.935963 0.0949459
127 2 0.998363 0.938105 0.409489
128 2 0.755592 0.819615 0.902527
129 3 0.104097 0.0739117 0.455154
130 3 0.162779 0.20111 0.957485
131 3 0.406449 0.185489 0.533542
132 3 0.340442 0.0536248 0.0367415
133 3 0.0871348 0.314259 0.46781
134 3 0.153341 0.447745 0.956227
135 3 0.405638 0.42578 0.544973
136 3 0.357838 0.317373 0.0463428
137 3 0.0870248 0.57087 0.447064
138 3 0.159488 0.698462 0.950471
139 3 0.411488 0.685157 0.551716
140 3 0.342401 0.556792 0.0561294
141 3 0.106143 0.823176 0.467894
142 3 0.15061 0.943038 0.950155
143 3 0.389764 0.937131 0.547872
144 3 0.355647 0.80909 0.0358637
145 3 0.576335 0.0541786 0.447953
146 3 0.665036 0.187455 0.958932
147 3 0.897988 0.184044 0.538282
148 3 0.859592 0.0560316 0.0469082
149 3 0.601482 0.314565 0.462777
150 3 0.663398 0.430112 0.958869
151 3 0.884877 0.437148 0.539673
152 3 0.851684 0.308229 0.0432116
153 3 0.582959 0.563977 0.45256
154 3 0.646491 0.683866 0.965962
155 3 0.905464 0.689367 0.549885
156 3 0.857503 0.566122 0.044743
157 3 0.594721 0.809178 0.452178
158 3 0.660196 0.936149 0.953852
159 3 0.903101 0.934987 0.534826
160 3 0.84788 0.811977 0.039926
ITEM: TIMESTEP
500
ITEM: NUMBER OF ATOMS
160
ITEM: BOX BOUNDS xy xz yz pp pp pp
-5.1109917721302089e-01 2.1208096544086246e+01 -7.8253145617120143e-02
3.9841887554762301e-01 1.8836465117229132e+01 -9.3149487509677470e-02
1.3400759372283125e-01 1.7626992406277122e+01 7.2883992776649226e-02
ITEM: ATOMS id type xs ys zs
1 1 0.221948 0.0597324 0.704427
2 1 0.0325055 0.185976 0.20085
3 1 0.295362 0.18252 0.300326
4 1 0.470981 0.0595648 0.789273
5 1 0.211989 0.297806 0.718659
6 1 0.0273918 0.427237 0.220543
7 1 0.279694 0.439031 0.303166
8 1 0.462877 0.311902 0.783861
9 1 0.225609 0.55006 0.695503
10 1 0.0446545 0.686289 0.202467
11 1 0.300516 0.719972 0.278113
12 1 0.455844 0.590054 0.793231
13 1 0.215143 0.791206 0.706708
14 1 0.0214512 0.940159 0.201074
15 1 0.272192 0.949675 0.307631
16 1 0.475653 0.833591 0.777189
17 1 0.72969 0.066545 0.690511
18 1 0.531549 0.193615 0.216217
19 1 0.77745 0.194559 0.28546
20 1 0.973799 0.0576518 0.791312
21 1 0.708128 0.307345 0.705739
22 1 0.543835 0.451184 0.191594
23 1 0.784041 0.437373 0.30234
24 1 0.965639 0.294126 0.806199
25 1 0.699704 0.567404 0.699959
26 1 0.555645 0.705133 0.187718
27 1 0.792434 0.693559 0.300075
28 1 0.958751 0.558717 0.794808
29 1 0.708202 0.810476 0.710867
30 1 0.536149 0.950174 0.195319
31 1 0.790937 0.930171 0.306416
32 1 0.963026 0.820325 0.798179
33 2 0.0858508 0.0594803 0.0324881
34 2 0.158528 0.186228 0.52701
35 2 0.40252 0.189497 0.95383
36 2 0.357278 0.0575617 0.4534
37 2 0.14016 0.059903 0.320327
38 2 0.10937 0.196135 0.826626
39 2 0.355042 0.183664 0.66219
40 2 0.396825 0.0738987 0.175898
41 2 0.99475 0.0498589 0.58481
42 2 0.255232 0.17758 0.0903512
43 2 0.504316 0.17637 0.404743
44 2 0.247456 0.062621 0.915614
45 2 0.10331 0.30758 0.0517796
46 2 0.162232 0.43583 0.539611
47 2 0.40174 0.445918 0.971568
48 2 0.347657 0.309293 0.449599
49 2 0.1433 0.310042 0.319718
50 2 0.0998325 0.444989 0.84139
51 2 0.349489 0.412753 0.664421
52 2 0.410839 0.318544 0.166142
53 2 0.00960012 0.297316 0.596265
54 2 0.250071 0.428631 0.104463
55 2 0.511261 0.431807 0.406985
56 2 0.246731 0.314345 0.916131
57 2 0.0847581 0.566692 0.0609519
58 2 0.165038 0.674942 0.538111
59 2 0.404997 0.699887 0.964693
60 2 0.347461 0.55557 0.462978
61 2 0.138245 0.566803 0.316352
62 2 0.0944309 0.68795 0.836524
63 2 0.349201 0.680487 0.658526
64 2 0.403497 0.577878 0.17815
65 2 0.998432 0.554073 0.589316
66 2 0.257878 0.685916 0.0888335
67 2 0.506657 0.681816 0.414506
68 2 0.239522 0.54835 0.934378
69 2 0.0945424 0.817314 0.0378522
70 2 0.146731 0.939353 0.519712
71 2 0.405995 0.935298 0.956055
72 2 0.346673 0.807349 0.436938
73 2 0.152584 0.817337 0.313228
74 2 0.103678 0.92954 0.828775
75 2 0.356062 0.937937 0.660579
76 2 0.402691 0.811858 0.161673
77 2 0.00590944 0.801138 0.598429
78 2 0.253421 0.932337 0.0886492
79 2 0.518375 0.928165 0.408688
80 2 0.247368 0.817991 0.903594
81 2 0.577455 0.0605115 0.0326981
82 2 0.66877 0.188374 0.525836
83 2 0.895807 0.194622 0.955169
84 2 0.842062 0.0568428 0.46122
85 2 0.653848 0.0660311 0.31776
86 2 0.596672 0.186215 0.823532
87 2 0.86819 0.183527 0.68318
88 2 0.890089 0.0753331 0.172589
89 2 0.510651 0.0679164 0.588766
90 2 0.742559 0.200481 0.0864468
91 2 0.999859 0.174271 0.407841
92 2 0.740398 0.0753906 0.924074
93 2 0.589044 0.322988 0.0126181
94 2 0.658926 0.4376 0.541101
95 2 0.901491 0.437004 0.983781
96 2 0.845467 0.301016 0.474291
97 2 0.64647 0.305657 0.318865
98 2 0.59047 0.449794 0.820574
99 2 0.845155 0.432557 0.673973
100 2 0.877884 0.313458 0.182712
101 2 0.505715 0.307769 0.593587
102 2 0.746056 0.432909 0.0887799
103 2 0.0124527 0.422871 0.415777
104 2 0.744178 0.330567 0.902694
105 2 0.595994 0.564731 0.0381077
106 2 0.656367 0.698109 0.542074
107 2 0.901404 0.691646 0.965683
108 2 0.846588 0.551782 0.468964
109 2 0.647372 0.558776 0.333649
110 2 0.60216 0.689345 0.826778
111 2 0.857608 0.685104 0.691137
112 2 0.87619 0.556118 0.196416
113 2 0.503845 0.554189 0.587384
114 2 0.743929 0.691676 0.0915774
115 2 0.00551983 0.688785 0.413986
116 2 0.749048 0.558819 0.9139
117 2 0.6013 0.807561 0.0328787
118 2 0.660818 0.931494 0.543379
119 2 0.899352 0.936463 0.969436
120 2 0.844089 0.803993 0.472726
121 2 0.657199 0.800567 0.314289
122 2 0.611948 0.944544 0.828451
123 2 0.860916 0.945372 0.685897
124 2 0.885544 0.814684 0.177244
125 2 0.501107 0.818718 0.590074
126 2 0.751423 0.934053 0.0985247
127 2 0.984363 0.921274 0.400373
128 2 0.752083 0.814159 0.911319
129 3 0.0828464 0.064021 0.475556
130 3 0.155793 0.187782 0.979975
131 3 0.411409 0.184201 0.528871
132 3 0.346427 0.0638636 0.0195966
133 3 0.100056 0.310667 0.471803
134 3 0.156042 0.433651 0.982739
135 3 0.407063 0.426917 0.522447
136 3 0.33629 0.305761 0.0355849
137 3 0.097248 0.563472 0.462437
138 3 0.14664 0.679115 0.986013
139 3 0.396098 0.683713 0.50149
140 3 0.348628 0.574396 0.0350546
141 3 0.0864039 0.806839 0.468545
142 3 0.162872 0.936614 0.971637
143 3 0.414707 0.936686 0.523871
144 3 0.341162 0.820195 0.0217532
145 3 0.607351 0.0641945 0.465453
146 3 0.64459 0.191485 0.973533
147 3 0.907206 0.181209 0.524571
148 3 0.840432 0.0707282 0.0219017
149 3 0.592188 0.313268 0.467839
150 3 0.656037 0.449377 0.966179
151 3 0.914638 0.435336 0.547659
152 3 0.828945 0.317628 0.037241
153 3 0.591242 0.564348 0.470561
154 3 0.662757 0.69656 0.964966
155 3 0.904811 0.687909 0.540167
156 3 0.838903 0.57021 0.0369421
157 3 0.593874 0.813219 0.470088
158 3 0.659266 0.946603 0.971999
159 3 0.903458 0.941627 0.531324
160 3 0.834963 0.817181 0.0352467
ITEM: TIMESTEP
1000
ITEM: NUMBER OF ATOMS
160
ITEM: BOX BOUNDS xy xz yz pp pp pp
-2.7743579300099702e-01 2.1836133090716082e+01 2.2502166753288633e-01
3.8552941318728912e-01 1.8893868970247244e+01 4.6527563018220758e-01
1.8014830894392292e-01 1.7580851691056075e+01 1.1739838343442806e-01
ITEM: ATOMS id type xs ys zs
1 1 0.220084 0.0558296 0.691164
2 1 0.0318222 0.170373 0.208958
3 1 0.303501 0.180345 0.295199
4 1 0.469367 0.06283 0.799435
5 1 0.208534 0.327861 0.692252
6 1 0.0504736 0.435149 0.175509
7 1 0.288961 0.42248 0.30455
8 1 0.456342 0.311752 0.811168
9 1 0.228418 0.565545 0.68135
10 1 0.0281136 0.690103 0.18282
11 1 0.28133 0.685139 0.299318
12 1 0.461039 0.568099 0.820058
13 1 0.216769 0.818255 0.71442
14 1 0.0253316 0.923363 0.203954
15 1 0.280062 0.928399 0.326787
16 1 0.473185 0.80705 0.841247
17 1 0.718791 0.046045 0.666066
18 1 0.520962 0.172137 0.197207
19 1 0.788562 0.187003 0.303383
20 1 0.976013 0.0833728 0.810995
21 1 0.718391 0.324132 0.701615
22 1 0.52955 0.42836 0.193008
23 1 0.787417 0.441789 0.290086
24 1 0.981814 0.342737 0.786047
25 1 0.711723 0.565555 0.702862
26 1 0.541457 0.677143 0.212396
27 1 0.780468 0.691746 0.285007
28 1 0.968714 0.586176 0.771759
29 1 0.717019 0.826142 0.707745
30 1 0.527169 0.933833 0.194022
31 1 0.772495 0.952569 0.30088
32 1 0.966617 0.842633 0.798858
33 2 0.0855638 0.0626874 0.0359507
34 2 0.156152 0.179068 0.527048
35 2 0.408486 0.187395 0.978313
36 2 0.33695 0.0566675 0.488482
37 2 0.146061 0.0486705 0.321607
38 2 0.108596 0.210192 0.808223
39 2 0.342606 0.191394 0.694084
40 2 0.389853 0.067523 0.16972
41 2 0.990065 0.0634661 0.607809
42 2 0.240185 0.198863 0.0739751
43 2 0.494519 0.170641 0.411627
44 2 0.253779 0.0481893 0.907493
45 2 0.0932544 0.327796 0.0131095
46 2 0.158356 0.425293 0.510511
47 2 0.407767 0.427859 0.993569
48 2 0.335176 0.3101 0.472731
49 2 0.157613 0.295901 0.306123
50 2 0.106952 0.461063 0.801527
51 2 0.353333 0.428636 0.678722
52 2 0.402761 0.30666 0.179172
53 2 0.00375515 0.307733 0.585679
54 2 0.247637 0.447345 0.0951807
55 2 0.503358 0.429157 0.398671
56 2 0.261379 0.333924 0.900563
57 2 0.101299 0.57192 0.0271307
58 2 0.153613 0.68587 0.537958
59 2 0.40835 0.662597 0.982996
60 2 0.329099 0.56537 0.486706
61 2 0.149547 0.559522 0.309854
62 2 0.0999317 0.694898 0.817231
63 2 0.361193 0.693623 0.693748
64 2 0.39319 0.556682 0.197345
65 2 0.0057698 0.556944 0.569853
66 2 0.253922 0.690155 0.09482
67 2 0.493093 0.691386 0.41427
68 2 0.251208 0.571198 0.904057
69 2 0.092718 0.82196 0.0289165
70 2 0.15843 0.928808 0.533268
71 2 0.404123 0.930567 0.980719
72 2 0.333677 0.816272 0.491847
73 2 0.149444 0.8169 0.319065
74 2 0.10162 0.951775 0.815785
75 2 0.356989 0.937874 0.70114
76 2 0.400838 0.79878 0.191676
77 2 0.990452 0.820488 0.589008
78 2 0.24868 0.934278 0.106894
79 2 0.495509 0.935467 0.408978
80 2 0.244638 0.817503 0.912572
81 2 0.594594 0.0549249 0.0301698
82 2 0.651761 0.186728 0.518454
83 2 0.906967 0.177121 0.971825
84 2 0.842812 0.0772199 0.492418
85 2 0.643361 0.0653902 0.312912
86 2 0.611528 0.177292 0.830919
87 2 0.84937 0.19914 0.693026
88 2 0.902513 0.0526696 0.185468
89 2 0.487654 0.0641564 0.586582
90 2 0.758694 0.180756 0.0991269
91 2 0.00444116 0.187355 0.405251
92 2 0.749884 0.0549653 0.915871
93 2 0.593033 0.29504 0.0320135
94 2 0.648471 0.43549 0.543486
95 2 0.911433 0.447138 0.960109
96 2 0.85187 0.316652 0.47114
97 2 0.655475 0.296004 0.318929
98 2 0.596177 0.430908 0.819597
99 2 0.865631 0.443009 0.686669
100 2 0.912306 0.322012 0.164119
101 2 0.49388 0.305515 0.586898
102 2 0.753493 0.437598 0.0925985
103 2 0.00827169 0.427568 0.401591
104 2 0.751125 0.311812 0.914893
105 2 0.59958 0.555328 0.0229899
106 2 0.648487 0.684506 0.54076
107 2 0.914474 0.689251 0.975724
108 2 0.850846 0.560584 0.462789
109 2 0.644003 0.557041 0.32504
110 2 0.611266 0.688834 0.827921
111 2 0.83705 0.702123 0.663206
112 2 0.906974 0.555628 0.165519
113 2 0.496317 0.563493 0.591423
114 2 0.758772 0.688473 0.0864925
115 2 0.00622667 0.702888 0.400528
116 2 0.756208 0.568052 0.910581
117 2 0.599513 0.808766 0.0190621
118 2 0.65038 0.931863 0.52179
119 2 0.90825 0.943222 0.976613
120 2 0.83423 0.824075 0.464493
121 2 0.633655 0.813246 0.307387
122 2 0.614118 0.948461 0.807068
123 2 0.85093 0.931894 0.682967
124 2 0.894182 0.81168 0.198738
125 2 0.492366 0.810066 0.589126
126 2 0.750171 0.943951 0.0947941
127 2 0.00281095 0.942962 0.417319
128 2 0.752303 0.815957 0.907056
129 3 0.0871461 0.053411 0.463059
130 3 0.146505 0.19408 0.965172
131 3 0.404502 0.187384 0.544804
132 3 0.339599 0.0585908 0.0295483
133 3 0.0969659 0.302827 0.455855
134 3 0.163599 0.452281 0.939616
135 3 0.397434 0.432513 0.527877
136 3 0.3458 0.308123 0.0348805
137 3 0.102207 0.553494 0.45768
138 3 0.152944 0.69386 0.951212
139 3 0.404408 0.690155 0.54417
140 3 0.332277 0.550566 0.0530249
141 3 0.08238 0.810494 0.465846
142 3 0.157506 0.945558 0.959067
143 3 0.40104 0.934417 0.553952
144 3 0.331732 0.809507 0.0495667
145 3 0.580632 0.0555856 0.453004
146 3 0.666948 0.178832 0.966641
147 3 0.919355 0.195712 0.55694
148 3 0.83416 0.0649793 0.0493239
149 3 0.590792 0.309761 0.46149
150 3 0.662654 0.425369 0.962658
151 3 0.916822 0.446539 0.530814
152 3 0.851095 0.313628 0.0264884
153 3 0.590714 0.556786 0.468767
154 3 0.66576 0.681984 0.971359
155 3 0.894298 0.698965 0.514752
156 3 0.843316 0.560621 0.0271979
157 3 0.586942 0.808371 0.462129
158 3 0.663288 0.93074 0.952435
159 3 0.909243 0.946092 0.539012
160 3 0.846066 0.822445 0.0381513
ITEM: TIMESTEP
1500
ITEM: NUMBER OF ATOMS
160
ITEM: BOX BOUNDS xy xz yz pp pp pp
-2.0390893032055915e-01 2.0972395155529856e+01 -4.3340113805387902e-02
4.8883967700154940e-01 1.8916954561289852e+01 -5.6573660985303607e-02
1.1162371932066059e-01 1.7649376280679320e+01 2.4379423829129460e-01
ITEM: ATOMS id type xs ys zs
1 1 0.184095 0.0654091 0.689684
2 1 0.0441014 0.178389 0.198048
3 1 0.305682 0.209499 0.312479
4 1 0.452233 0.0662647 0.800108
5 1 0.214539 0.313756 0.704769
6 1 0.0588751 0.439415 0.223703
7 1 0.314762 0.455983 0.309474
8 1 0.454568 0.314357 0.826557
9 1 0.23323 0.565235 0.682626
10 1 0.0237579 0.680351 0.188677
11 1 0.307237 0.690979 0.300941
12 1 0.454907 0.562459 0.782257
13 1 0.201562 0.814477 0.708603
14 1 0.064249 0.930928 0.203611
15 1 0.294646 0.947233 0.300028
16 1 0.476999 0.811455 0.823898
17 1 0.711212 0.0587726 0.71334
18 1 0.534017 0.216025 0.197409
19 1 0.809399 0.179539 0.292342
20 1 0.951625 0.0538052 0.785951
21 1 0.70112 0.306949 0.700733
22 1 0.548749 0.448746 0.173038
23 1 0.800314 0.436228 0.302195
24 1 0.95584 0.306095 0.792502
25 1 0.706946 0.556453 0.692109
26 1 0.549753 0.680029 0.208049
27 1 0.803636 0.688625 0.314633
28 1 0.94804 0.556143 0.798404
29 1 0.702057 0.802009 0.697734
30 1 0.547755 0.952738 0.19478
31 1 0.804308 0.924646 0.275619
32 1 0.958247 0.783017 0.795421
33 2 0.094515 0.050422 0.0366319
34 2 0.143553 0.18498 0.534289
35 2 0.402477 0.17643 0.978675
36 2 0.333159 0.0643486 0.494895
37 2 0.170289 0.0724034 0.322087
38 2 0.0988457 0.18484 0.836168
39 2 0.351877 0.200366 0.692499
40 2 0.403348 0.0744741 0.191304
41 2 0.993115 0.0588077 0.589177
42 2 0.258112 0.173892 0.0997163
43 2 0.500122 0.210079 0.406815
44 2 0.249287 0.0537839 0.916546
45 2 0.109518 0.31448 0.0312398
46 2 0.154525 0.425366 0.550293
47 2 0.403253 0.439892 0.976235
48 2 0.343538 0.330202 0.486457
49 2 0.149304 0.31596 0.335061
50 2 0.0900741 0.426225 0.822406
51 2 0.357221 0.43115 0.689994
52 2 0.390604 0.325566 0.196787
53 2 0.989688 0.297463 0.590905
54 2 0.24912 0.444337 0.0914755
55 2 0.505837 0.445273 0.406414
56 2 0.260291 0.302241 0.912102
57 2 0.0861333 0.559585 0.0292489
58 2 0.151891 0.689534 0.532204
59 2 0.401836 0.68583 0.965739
60 2 0.341204 0.571106 0.473243
61 2 0.166709 0.537702 0.347018
62 2 0.106079 0.685136 0.807056
63 2 0.350219 0.701024 0.663884
64 2 0.409663 0.576247 0.170271
65 2 0.983814 0.559559 0.594699
66 2 0.249333 0.6735 0.0905204
67 2 0.499238 0.696907 0.402998
68 2 0.235752 0.565166 0.911144
69 2 0.101752 0.808134 0.0259381
70 2 0.155433 0.932072 0.533719
71 2 0.4185 0.94419 0.972609
72 2 0.339914 0.816214 0.461394
73 2 0.164962 0.818416 0.320753
74 2 0.103392 0.935247 0.805307
75 2 0.357645 0.932915 0.695457
76 2 0.416172 0.803831 0.179442
77 2 0.000556604 0.811215 0.594408
78 2 0.266097 0.930846 0.101839
79 2 0.487494 0.955753 0.404211
80 2 0.252266 0.810912 0.920053
81 2 0.598219 0.0651119 0.0236375
82 2 0.659948 0.188156 0.518761
83 2 0.906708 0.185962 0.959043
84 2 0.842621 0.0670592 0.470104
85 2 0.65068 0.0661154 0.31717
86 2 0.587348 0.199995 0.816314
87 2 0.836458 0.186987 0.687822
88 2 0.902145 0.0580155 0.177174
89 2 0.499649 0.0676407 0.587651
90 2 0.752484 0.184889 0.0782466
91 2 0.000210535 0.190257 0.397976
92 2 0.74075 0.0648759 0.902904
93 2 0.59364 0.311781 0.0280347
94 2 0.659304 0.440619 0.528918
95 2 0.902783 0.438028 0.9778
96 2 0.841576 0.312573 0.470266
97 2 0.653978 0.30893 0.300385
98 2 0.596668 0.445656 0.822837
99 2 0.844348 0.427178 0.69137
100 2 0.898782 0.318201 0.176961
101 2 0.497178 0.313725 0.598665
102 2 0.739511 0.440014 0.0890193
103 2 0.000642831 0.438331 0.421622
104 2 0.744871 0.321588 0.902903
105 2 0.595131 0.565279 0.0218938
106 2 0.659964 0.682482 0.515319
107 2 0.902256 0.686039 0.964662
108 2 0.836673 0.551712 0.474773
109 2 0.664225 0.57449 0.313454
110 2 0.595468 0.68224 0.805992
111 2 0.840577 0.684336 0.680359
112 2 0.878812 0.562286 0.186984
113 2 0.501177 0.561039 0.59368
114 2 0.743465 0.687464 0.0844921
115 2 0.00660947 0.676019 0.400183
116 2 0.744931 0.562523 0.909533
117 2 0.593436 0.816407 0.0258935
118 2 0.6479 0.938997 0.526395
119 2 0.904771 0.930056 0.964373
120 2 0.84655 0.810777 0.458533
121 2 0.651154 0.839031 0.326829
122 2 0.610162 0.936392 0.816889
123 2 0.84537 0.925896 0.679977
124 2 0.895734 0.806489 0.168772
125 2 0.497658 0.818378 0.570616
126 2 0.749482 0.928893 0.077174
127 2 0.00842731 0.934283 0.39451
128 2 0.748344 0.805169 0.898603
129 3 0.0905186 0.0541213 0.458345
130 3 0.163172 0.180472 0.968048
131 3 0.405647 0.202244 0.54877
132 3 0.342864 0.0594875 0.0418425
133 3 0.080817 0.310971 0.468647
134 3 0.143664 0.445502 0.963084
135 3 0.424723 0.437726 0.553653
136 3 0.331489 0.320675 0.0520608
137 3 0.0914318 0.546347 0.481011
138 3 0.156351 0.678248 0.958307
139 3 0.411307 0.696802 0.525379
140 3 0.341406 0.562533 0.0354672
141 3 0.0981354 0.815643 0.457277
142 3 0.165609 0.93147 0.950878
143 3 0.407328 0.945029 0.541396
144 3 0.345508 0.816109 0.0431752
145 3 0.582709 0.0620349 0.453259
146 3 0.653815 0.1927 0.959537
147 3 0.892062 0.18319 0.54416
148 3 0.843217 0.0591652 0.0333415
149 3 0.598437 0.31904 0.446963
150 3 0.659486 0.436159 0.961665
151 3 0.900945 0.432953 0.557197
152 3 0.845261 0.308983 0.0292381
153 3 0.595643 0.56322 0.454841
154 3 0.651656 0.690896 0.950701
155 3 0.902265 0.683228 0.54377
156 3 0.831509 0.560803 0.0386668
157 3 0.601645 0.807819 0.46803
158 3 0.653203 0.945164 0.966922
159 3 0.898027 0.935895 0.53213
160 3 0.833862 0.810269 0.0209624
ITEM: TIMESTEP
2000
ITEM: NUMBER OF ATOMS
160
ITEM: BOX BOUNDS xy xz yz pp pp pp
-3.4901665347393118e-01 2.1345858903095717e+01 4.9809421469843573e-02
3.7076625449081319e-01 1.8805320430903087e+01 7.8632828151901243e-02
2.1013411679705660e-01 1.7550865883202881e+01 1.4086685393824339e-02
ITEM: ATOMS id type xs ys zs
1 1 0.204234 0.0628172 0.699814
2 1 0.0248513 0.188459 0.181906
3 1 0.280561 0.189164 0.293793
4 1 0.458524 0.0544144 0.802059
5 1 0.231652 0.307865 0.694641
6 1 0.0279362 0.434494 0.190629
7 1 0.277426 0.436606 0.28709
8 1 0.474848 0.320797 0.793322
9 1 0.212531 0.571809 0.696542
10 1 0.0322208 0.680928 0.205787
11 1 0.29444 0.69823 0.315796
12 1 0.459489 0.574391 0.802032
13 1 0.212928 0.82361 0.713475
14 1 0.060976 0.922905 0.203601
15 1 0.286433 0.934229 0.299777
16 1 0.481683 0.813482 0.822272
17 1 0.730507 0.0690679 0.701994
18 1 0.534087 0.20382 0.189701
19 1 0.776965 0.177525 0.299228
20 1 0.949648 0.0793068 0.819789
21 1 0.716028 0.311654 0.68348
22 1 0.525983 0.458143 0.188959
23 1 0.762962 0.430527 0.315182
24 1 0.979236 0.31714 0.790811
25 1 0.71499 0.566935 0.682712
26 1 0.536279 0.708866 0.185071
27 1 0.785763 0.656999 0.312981
28 1 0.967913 0.576297 0.819228
29 1 0.723803 0.813587 0.681383
30 1 0.538809 0.945627 0.190742
31 1 0.78862 0.925426 0.322049
32 1 0.95312 0.80458 0.820236
33 2 0.0900248 0.0712927 0.0366721
34 2 0.154437 0.197256 0.514092
35 2 0.404837 0.196087 0.950392
36 2 0.350124 0.045461 0.446453
37 2 0.159212 0.0661488 0.321413
38 2 0.0985286 0.185853 0.831563
39 2 0.341623 0.177001 0.656303
40 2 0.395486 0.0636621 0.179312
41 2 0.00393789 0.0807073 0.591647
42 2 0.254392 0.189864 0.0823898
43 2 0.501784 0.183055 0.397078
44 2 0.255658 0.0628968 0.907197
45 2 0.0921845 0.322206 0.026615
46 2 0.165262 0.444665 0.511362
47 2 0.393216 0.449705 0.951765
48 2 0.349881 0.30362 0.452185
49 2 0.152319 0.313721 0.298388
50 2 0.101547 0.433888 0.819735
51 2 0.356524 0.430964 0.684054
52 2 0.402387 0.319009 0.161418
53 2 0.987484 0.318079 0.575201
54 2 0.249273 0.4496 0.0801505
55 2 0.495872 0.436889 0.40467
56 2 0.240656 0.317279 0.904224
57 2 0.0888293 0.570681 0.0329708
58 2 0.161778 0.684871 0.529559
59 2 0.40354 0.682729 0.961267
60 2 0.349202 0.557754 0.455075
61 2 0.149765 0.562059 0.313493
62 2 0.100206 0.703703 0.81883
63 2 0.333942 0.692478 0.67499
64 2 0.39907 0.565415 0.158726
65 2 0.996568 0.553146 0.576973
66 2 0.254443 0.679764 0.0755356
67 2 0.497355 0.682238 0.398781
68 2 0.241866 0.568155 0.886863
69 2 0.0980587 0.809731 0.0396987
70 2 0.177854 0.937809 0.553152
71 2 0.408514 0.935575 0.978301
72 2 0.338142 0.809194 0.474979
73 2 0.156608 0.816633 0.320221
74 2 0.0857873 0.939294 0.845232
75 2 0.375971 0.940179 0.680371
76 2 0.386806 0.806143 0.185661
77 2 0.00407762 0.810898 0.591133
78 2 0.240487 0.948496 0.102138
79 2 0.513599 0.92502 0.403573
80 2 0.24947 0.832064 0.915576
81 2 0.598075 0.0613378 0.0459523
82 2 0.643058 0.172283 0.533176
83 2 0.912372 0.178738 0.00991192
84 2 0.842963 0.0641272 0.48024
85 2 0.657583 0.0412365 0.317453
86 2 0.611682 0.174088 0.833597
87 2 0.842743 0.191857 0.67848
88 2 0.886774 0.0549531 0.207065
89 2 0.490913 0.05493 0.56984
90 2 0.741858 0.202973 0.107594
91 2 0.00810806 0.191869 0.388247
92 2 0.756084 0.0674627 0.927428
93 2 0.591231 0.320299 0.0315332
94 2 0.64043 0.42528 0.531503
95 2 0.91145 0.437757 0.97099
96 2 0.820682 0.310072 0.473093
97 2 0.637541 0.311906 0.308703
98 2 0.607349 0.442777 0.821168
99 2 0.850334 0.442461 0.678543
100 2 0.901268 0.314129 0.197294
101 2 0.492034 0.291877 0.590996
102 2 0.751308 0.431125 0.0867021
103 2 0.00867956 0.4226 0.392361
104 2 0.753509 0.305498 0.910629
105 2 0.594044 0.577605 0.0359864
106 2 0.652926 0.679166 0.531398
107 2 0.909758 0.683986 0.98039
108 2 0.836915 0.561827 0.47871
109 2 0.64312 0.555758 0.317257
110 2 0.612763 0.68554 0.827929
111 2 0.846884 0.689551 0.690464
112 2 0.892678 0.554039 0.193238
113 2 0.495717 0.560202 0.581582
114 2 0.755402 0.69986 0.0969417
115 2 0.0072741 0.684028 0.414007
116 2 0.749684 0.564737 0.92628
117 2 0.595813 0.817443 0.0130787
118 2 0.659317 0.919642 0.527795
119 2 0.902297 0.942543 0.99049
120 2 0.854891 0.815699 0.479817
121 2 0.646175 0.792239 0.316336
122 2 0.608056 0.942568 0.820382
123 2 0.863773 0.932336 0.69301
124 2 0.915291 0.812469 0.182825
125 2 0.499087 0.803148 0.594804
126 2 0.75687 0.922066 0.105114
127 2 0.0260981 0.943443 0.421829
128 2 0.754332 0.823319 0.909697
129 3 0.0818438 0.0730818 0.450326
130 3 0.156247 0.193765 0.977269
131 3 0.410687 0.171659 0.520115
132 3 0.345621 0.0598526 0.0242366
133 3 0.0975794 0.320308 0.442275
134 3 0.157209 0.44523 0.963734
135 3 0.401526 0.419409 0.527205
136 3 0.339658 0.315631 0.0140048
137 3 0.0959815 0.560709 0.460157
138 3 0.146426 0.689674 0.963532
139 3 0.405675 0.678442 0.539946
140 3 0.33684 0.566689 0.0257507
141 3 0.106456 0.818647 0.472064
142 3 0.151678 0.94462 0.975761
143 3 0.407938 0.932073 0.530079
144 3 0.335516 0.80661 0.043838
145 3 0.593995 0.0492248 0.45727
146 3 0.664117 0.195005 0.973
147 3 0.911353 0.195729 0.545872
148 3 0.834012 0.053802 0.0621543
149 3 0.579118 0.300528 0.462138
150 3 0.647234 0.444139 0.966317
151 3 0.909775 0.447609 0.539512
152 3 0.839159 0.307964 0.0467119
153 3 0.574891 0.554961 0.453357
154 3 0.671014 0.697704 0.966806
155 3 0.916931 0.698753 0.548402
156 3 0.83892 0.556754 0.0356659
157 3 0.585969 0.798905 0.460516
158 3 0.659924 0.943825 0.963931
159 3 0.918087 0.937646 0.541994
160 3 0.84662 0.814644 0.0550516
ITEM: TIMESTEP
2500
ITEM: NUMBER OF ATOMS
160
ITEM: BOX BOUNDS xy xz yz pp pp pp
-6.0946799513060790e-01 2.1128218023574185e+01 -1.6906255963347445e-02
3.5824597953500759e-01 1.8730419163899622e+01 -3.3274371559311627e-01
1.8137005975534226e-01 1.7579629940244548e+01 -7.3334856565449552e-02
ITEM: ATOMS id type xs ys zs
1 1 0.214628 0.0615765 0.697888
2 1 0.0467078 0.188749 0.18886
3 1 0.324307 0.167822 0.30641
4 1 0.451853 0.0556101 0.799548
5 1 0.22556 0.321133 0.699791
6 1 0.0392979 0.433678 0.208546
7 1 0.282656 0.435208 0.310545
8 1 0.47059 0.315198 0.808913
9 1 0.212335 0.566564 0.703662
10 1 0.0429233 0.675768 0.199882
11 1 0.270885 0.687513 0.303322
12 1 0.445185 0.562405 0.805093
13 1 0.212968 0.82002 0.673486
14 1 0.043893 0.950153 0.203969
15 1 0.280145 0.949614 0.287222
16 1 0.464281 0.809789 0.787713
17 1 0.692046 0.063187 0.707318
18 1 0.53953 0.175327 0.206873
19 1 0.79334 0.208474 0.287267
20 1 0.958642 0.0506262 0.806465
21 1 0.707353 0.301891 0.697248
22 1 0.548 0.428414 0.220261
23 1 0.786051 0.431185 0.295366
24 1 0.988439 0.326796 0.807647
25 1 0.703953 0.565902 0.71088
26 1 0.547427 0.678297 0.190958
27 1 0.78814 0.682127 0.282008
28 1 0.965008 0.570327 0.793745
29 1 0.709197 0.812591 0.692155
30 1 0.529136 0.922193 0.188246
31 1 0.791541 0.948658 0.302726
32 1 0.968231 0.808722 0.787739
33 2 0.10363 0.0614465 0.0333705
34 2 0.15318 0.179239 0.548304
35 2 0.409644 0.177403 0.962024
36 2 0.344459 0.0584307 0.467712
37 2 0.136988 0.0701698 0.316296
38 2 0.100994 0.191207 0.819386
39 2 0.35237 0.178407 0.675302
40 2 0.399366 0.0560824 0.17857
41 2 0.986356 0.0629286 0.585569
42 2 0.264997 0.181901 0.0986357
43 2 0.496444 0.180659 0.406316
44 2 0.247442 0.0555878 0.902373
45 2 0.0871849 0.313412 0.0366156
46 2 0.160905 0.434254 0.541899
47 2 0.406046 0.427959 0.980291
48 2 0.344461 0.310497 0.483367
49 2 0.142163 0.311986 0.323234
50 2 0.114308 0.448163 0.842863
51 2 0.355973 0.438273 0.68781
52 2 0.413955 0.305648 0.199849
53 2 0.994415 0.333996 0.594653
54 2 0.258154 0.434217 0.102162
55 2 0.495752 0.438274 0.416486
56 2 0.24473 0.306901 0.931792
57 2 0.105466 0.556765 0.0484037
58 2 0.153521 0.676752 0.519555
59 2 0.421683 0.680796 0.980886
60 2 0.335164 0.563195 0.460789
61 2 0.148651 0.54959 0.300444
62 2 0.11596 0.694566 0.810225
63 2 0.345727 0.68802 0.68108
64 2 0.408034 0.567666 0.195613
65 2 0.990914 0.563079 0.592024
66 2 0.265213 0.70659 0.0974507
67 2 0.517669 0.691061 0.403382
68 2 0.253516 0.565575 0.923211