ITEM: TIMESTEP
0
ITEM: NUMBER OF ATOMS
160
ITEM: BOX BOUNDS xy xz yz pp pp pp
7.7610876950660534e-01 2.0092291230493394e+01 0.0000000000000000e+00
4.5077859356620370e-01 1.8711221406433797e+01 0.0000000000000000e+00
6.8590428776178403e-01 1.7075095712238213e+01 0.0000000000000000e+00
ITEM: ATOMS id type xs ys zs
1 1 0.210856 0.0603232 0.674291
2 1 0.0452731 0.186503 0.169661
3 1 0.295351 0.199883 0.332105
4 1 0.450681 0.0543064 0.830827
5 1 0.201799 0.311832 0.663741
6 1 0.0412729 0.44921 0.164674
7 1 0.297044 0.436947 0.326647
8 1 0.459288 0.312732 0.828788
9 1 0.205784 0.557808 0.667675
10 1 0.0455234 0.68566 0.171302
11 1 0.302922 0.689548 0.333108
12 1 0.454346 0.559767 0.831229
13 1 0.206165 0.809017 0.670895
14 1 0.0477976 0.941582 0.166927
15 1 0.295469 0.936634 0.329444
16 1 0.460547 0.815837 0.839069
17 1 0.708348 0.0671482 0.661243
18 1 0.548746 0.189939 0.177414
19 1 0.804363 0.185958 0.328124
20 1 0.951553 0.0627897 0.836046
21 1 0.707579 0.310803 0.672057
22 1 0.549589 0.442302 0.171407
23 1 0.797755 0.441649 0.328408
24 1 0.955328 0.309169 0.833934
25 1 0.707568 0.5648 0.670796
26 1 0.5426 0.689953 0.170197
27 1 0.796631 0.689723 0.342261
28 1 0.955678 0.562565 0.834197
29 1 0.705426 0.81587 0.672702
30 1 0.54256 0.937214 0.173368
31 1 0.800103 0.932538 0.335303
32 1 0.951339 0.81249 0.837354
33 2 0.089299 0.0621737 0.993791
34 2 0.162075 0.190062 0.495703
35 2 0.413911 0.190404 0.00483496
36 2 0.338555 0.0547068 0.503412
37 2 0.154613 0.0709831 0.292475
38 2 0.104684 0.186579 0.795062
39 2 0.352589 0.188627 0.713434
40 2 0.402051 0.0694665 0.21311
41 2 0.0151512 0.0623216 0.606806
42 2 0.235024 0.190283 0.111061
43 2 0.482957 0.185517 0.396926
44 2 0.265058 0.0657973 0.905692
45 2 0.0911595 0.31718 0.998831
46 2 0.161398 0.438482 0.496203
47 2 0.411959 0.434339 0.00310745
48 2 0.340497 0.310685 0.503165
49 2 0.148972 0.324096 0.282269
50 2 0.0939118 0.435598 0.78891
51 2 0.347973 0.434534 0.707435
52 2 0.409423 0.313252 0.213958
53 2 0.0129536 0.303987 0.594369
54 2 0.235707 0.438151 0.100144
55 2 0.486283 0.439708 0.400199
56 2 0.261213 0.316903 0.89949
57 2 0.0933717 0.570901 0.99272
58 2 0.162069 0.681385 0.491156
59 2 0.41061 0.691686 0.00717646
60 2 0.333464 0.565938 0.5032
61 2 0.157623 0.566554 0.283723
62 2 0.0900086 0.685344 0.781333
63 2 0.352829 0.685265 0.713995
64 2 0.402716 0.558819 0.205593
65 2 0.0185407 0.553829 0.597075
66 2 0.242481 0.688735 0.110284
67 2 0.487236 0.690035 0.401091
68 2 0.266108 0.562883 0.899023
69 2 0.087503 0.81493 0.989488
70 2 0.165433 0.938513 0.497407
71 2 0.407334 0.93997 0.0104534
72 2 0.338604 0.805693 0.507204
73 2 0.151792 0.810382 0.28742
74 2 0.0983074 0.936879 0.787039
75 2 0.349233 0.928952 0.710912
76 2 0.399419 0.813876 0.208666
77 2 0.0134756 0.812144 0.594136
78 2 0.233939 0.942338 0.102733
79 2 0.486265 0.936652 0.400973
80 2 0.262973 0.823934 0.894196
81 2 0.578108 0.0600034 0.99986
82 2 0.662326 0.188455 0.489002
83 2 0.91538 0.185811 0.00485564
84 2 0.844201 0.0611263 0.496903
85 2 0.6567 0.0640752 0.292282
86 2 0.596156 0.179052 0.782288
87 2 0.849706 0.190122 0.705845
88 2 0.901226 0.0597606 0.208986
89 2 0.511197 0.0581923 0.598782
90 2 0.733416 0.18759 0.0942118
91 2 0.989231 0.184579 0.397711
92 2 0.760865 0.0651036 0.88866
93 2 0.58943 0.309893 0.996938
94 2 0.66558 0.433246 0.493756
95 2 0.908601 0.433489 0.00454058
96 2 0.831873 0.310313 0.503932
97 2 0.653195 0.314628 0.291785
98 2 0.599878 0.437839 0.78193
99 2 0.850075 0.434248 0.716843
100 2 0.901419 0.316766 0.205897
101 2 0.509985 0.312733 0.604636
102 2 0.73707 0.436956 0.0969119
103 2 0.982189 0.433934 0.397981
104 2 0.763216 0.314965 0.900193
105 2 0.580599 0.56287 0.996987
106 2 0.662849 0.688413 0.505739
107 2 0.908443 0.688129 0.00496179
108 2 0.847925 0.559415 0.503267
109 2 0.653333 0.568602 0.296066
110 2 0.597026 0.683794 0.784451
111 2 0.85251 0.686765 0.710177
112 2 0.893264 0.570639 0.209116
113 2 0.513131 0.553835 0.600979
114 2 0.739539 0.684327 0.098911
115 2 0.985186 0.680764 0.407044
116 2 0.757841 0.569569 0.899734
117 2 0.588333 0.813034 0.00239173
118 2 0.665482 0.936495 0.489273
119 2 0.898784 0.937448 0.00466491
120 2 0.842714 0.808963 0.512877
121 2 0.653674 0.809852 0.28381
122 2 0.596742 0.943368 0.784704
123 2 0.850838 0.935565 0.711343
124 2 0.907335 0.808948 0.213306
125 2 0.50967 0.810621 0.601064
126 2 0.73594 0.940524 0.106644
127 2 0.99356 0.940158 0.395449
128 2 0.754137 0.807231 0.90028
129 3 0.0814417 0.0646355 0.435898
130 3 0.171067 0.188172 0.948015
131 3 0.413879 0.179265 0.559973
132 3 0.330577 0.068652 0.0666562
133 3 0.0839158 0.312815 0.43456
134 3 0.169871 0.438398 0.935653
135 3 0.416907 0.437681 0.559327
136 3 0.332686 0.318707 0.0696906
137 3 0.0761135 0.560267 0.426901
138 3 0.164146 0.691522 0.929485
139 3 0.425946 0.678878 0.566757
140 3 0.327003 0.565637 0.0638314
141 3 0.0837499 0.817662 0.440441
142 3 0.16896 0.94413 0.931727
143 3 0.420126 0.932821 0.564981
144 3 0.323195 0.819256 0.064553
145 3 0.574227 0.065007 0.433542
146 3 0.657235 0.181427 0.932479
147 3 0.919003 0.18904 0.557084
148 3 0.824619 0.0633725 0.0624224
149 3 0.585244 0.312073 0.441818
150 3 0.662845 0.43492 0.936159
151 3 0.920939 0.430027 0.560927
152 3 0.830241 0.309548 0.0610034
153 3 0.582653 0.564013 0.441239
154 3 0.663257 0.684504 0.933894
155 3 0.927981 0.686706 0.565638
156 3 0.830343 0.564243 0.0583097
157 3 0.582818 0.811563 0.434484
158 3 0.669183 0.932661 0.935269
159 3 0.924606 0.935615 0.564957
160 3 0.820392 0.807309 0.0682654
ITEM: TIMESTEP
500
ITEM: NUMBER OF ATOMS
160
ITEM: BOX BOUNDS xy xz yz pp pp pp
5.6385376181098690e-01 2.0177676736258004e+01 -1.0237870247273548e-01
4.0264695380253823e-01 1.8837976780824491e+01 -2.4490799458198358e-02
7.3911472276832435e-01 1.7021885277231696e+01 7.8623734627023309e-02
ITEM: ATOMS id type xs ys zs
1 1 0.203938 0.0643686 0.664892
2 1 0.0526489 0.18429 0.16977
3 1 0.29694 0.184201 0.331216
4 1 0.444032 0.066636 0.828268
5 1 0.201754 0.317636 0.668576
6 1 0.0500312 0.439354 0.170301
7 1 0.298276 0.44264 0.336242
8 1 0.451696 0.314405 0.835651
9 1 0.203279 0.563461 0.669654
10 1 0.0432847 0.686858 0.173802
11 1 0.300712 0.681552 0.333373
12 1 0.453815 0.564772 0.825619
13 1 0.20212 0.820435 0.675863
14 1 0.0523876 0.938527 0.167117
15 1 0.301535 0.929954 0.319787
16 1 0.456953 0.804009 0.824892
17 1 0.705256 0.0607759 0.678902
18 1 0.548957 0.183735 0.175365
19 1 0.797933 0.185187 0.331865
20 1 0.950873 0.0635793 0.826111
21 1 0.70329 0.316204 0.67796
22 1 0.544843 0.438819 0.18076
23 1 0.791277 0.438079 0.331399
24 1 0.955905 0.312695 0.837935
25 1 0.710554 0.560443 0.663767
26 1 0.548871 0.688565 0.169972
27 1 0.80107 0.688077 0.330147
28 1 0.949221 0.566702 0.824792
29 1 0.701765 0.815881 0.664315
30 1 0.550852 0.938925 0.170882
31 1 0.792939 0.938662 0.322449
32 1 0.951067 0.818606 0.831854
33 2 0.0904127 0.0657864 0.992251
34 2 0.161515 0.192904 0.49699
35 2 0.412886 0.186751 0.0124705
36 2 0.332619 0.059815 0.501749
37 2 0.160032 0.0582938 0.295675
38 2 0.0926738 0.185963 0.784742
39 2 0.346737 0.192568 0.705765
40 2 0.402845 0.0611187 0.212616
41 2 0.0124858 0.0587471 0.59908
42 2 0.232934 0.189772 0.098139
43 2 0.497576 0.183001 0.407122
44 2 0.25842 0.0638916 0.901174
45 2 0.09353 0.312626 0.995575
46 2 0.158262 0.443713 0.499544
47 2 0.410604 0.440973 0.00023872
48 2 0.336645 0.312368 0.506542
49 2 0.15758 0.31332 0.285195
50 2 0.0936337 0.44322 0.781654
51 2 0.346317 0.431969 0.710075
52 2 0.406987 0.312242 0.209093
53 2 0.0106046 0.312501 0.601399
54 2 0.238329 0.439639 0.102946
55 2 0.488152 0.44213 0.400331
56 2 0.26181 0.314673 0.895396
57 2 0.0812284 0.56389 0.992347
58 2 0.163642 0.687528 0.49488
59 2 0.407269 0.688018 0.00120848
60 2 0.341674 0.559405 0.504735
61 2 0.154622 0.562358 0.289371
62 2 0.0958668 0.692203 0.784324
63 2 0.34329 0.688351 0.711619
64 2 0.403437 0.558622 0.207279
65 2 0.0111993 0.568242 0.600726
66 2 0.231337 0.691852 0.105069
67 2 0.485915 0.679879 0.405484
68 2 0.256816 0.568977 0.899425
69 2 0.0857303 0.81583 0.998704
70 2 0.166374 0.937761 0.490864
71 2 0.408989 0.929937 0.00482803
72 2 0.330636 0.814353 0.507131
73 2 0.161166 0.81434 0.28114
74 2 0.098696 0.941268 0.788413
75 2 0.348586 0.936007 0.71157
76 2 0.402638 0.805855 0.204985
77 2 0.00771633 0.81744 0.596497
78 2 0.234941 0.942088 0.0971205
79 2 0.489202 0.932382 0.399259
80 2 0.260671 0.80953 0.895424
81 2 0.588045 0.0608657 0.993096
82 2 0.671367 0.182242 0.505763
83 2 0.912449 0.190583 0.00910154
84 2 0.839397 0.0594835 0.505678
85 2 0.650823 0.0649474 0.299467
86 2 0.592399 0.189944 0.791096
87 2 0.846222 0.187651 0.710845
88 2 0.906663 0.0634693 0.214449
89 2 0.506554 0.0594962 0.601933
90 2 0.73736 0.183147 0.110921
91 2 0.989774 0.18824 0.398705
92 2 0.764302 0.0544994 0.89932
93 2 0.586915 0.308089 0.00780603
94 2 0.657324 0.440165 0.496219
95 2 0.907121 0.441671 0.00321242
96 2 0.837164 0.312627 0.50331
97 2 0.652973 0.302242 0.294241
98 2 0.594407 0.437044 0.78884
99 2 0.847478 0.434355 0.711882
100 2 0.910345 0.312968 0.228126
101 2 0.516027 0.310047 0.60175
102 2 0.735002 0.439762 0.104203
103 2 0.992813 0.444775 0.398619
104 2 0.761012 0.303838 0.911722
105 2 0.587403 0.562979 0.998481
106 2 0.662397 0.687695 0.492746
107 2 0.913143 0.690153 0.00210876
108 2 0.841962 0.558661 0.501923
109 2 0.657727 0.565846 0.292293
110 2 0.600354 0.683375 0.783908
111 2 0.84428 0.689191 0.705113
112 2 0.904715 0.560194 0.212028
113 2 0.512977 0.550417 0.605574
114 2 0.74221 0.688204 0.0928664
115 2 0.99579 0.695338 0.394218
116 2 0.757561 0.56085 0.89276
117 2 0.581519 0.809095 0.993876
118 2 0.670091 0.942959 0.498298
119 2 0.918282 0.942409 0.00396282
120 2 0.838939 0.82035 0.496055
121 2 0.660156 0.810125 0.288905
122 2 0.591039 0.942841 0.791899
123 2 0.847204 0.932882 0.705052
124 2 0.905087 0.812447 0.209667
125 2 0.50958 0.80398 0.598663
126 2 0.745078 0.93546 0.0973856
127 2 0.993981 0.944396 0.394327
128 2 0.760146 0.815209 0.89085
129 3 0.0822914 0.0648961 0.435152
130 3 0.172661 0.192064 0.927143
131 3 0.4165 0.185881 0.559286
132 3 0.328591 0.0656919 0.0628999
133 3 0.0853808 0.31984 0.434726
134 3 0.164772 0.439931 0.93292
135 3 0.418917 0.434744 0.565306
136 3 0.331935 0.311987 0.0627913
137 3 0.0790984 0.56785 0.440784
138 3 0.164241 0.687068 0.937874
139 3 0.412825 0.689175 0.563156
140 3 0.329094 0.561681 0.0594748
141 3 0.091912 0.812138 0.434062
142 3 0.169005 0.938333 0.932727
143 3 0.410385 0.938457 0.559176
144 3 0.32423 0.807971 0.0589886
145 3 0.583679 0.0634898 0.448287
146 3 0.661697 0.184671 0.938518
147 3 0.919412 0.187044 0.568073
148 3 0.835748 0.0631687 0.0608905
149 3 0.579915 0.308213 0.442701
150 3 0.661982 0.433413 0.944381
151 3 0.918845 0.432794 0.561181
152 3 0.830781 0.312231 0.0807447
153 3 0.582059 0.560497 0.440009
154 3 0.671136 0.681212 0.928579
155 3 0.915897 0.694745 0.55678
156 3 0.830104 0.562556 0.0617244
157 3 0.581074 0.807525 0.436496
158 3 0.667235 0.93017 0.940502
159 3 0.921541 0.937868 0.556321
160 3 0.832375 0.810139 0.0587149
ITEM: TIMESTEP
1000
ITEM: NUMBER OF ATOMS
160
ITEM: BOX BOUNDS xy xz yz pp pp pp
5.2194184797178711e-01 2.0292241834824694e+01 9.8854058388172697e-02
4.0079557221098189e-01 1.8749681676386551e+01 -1.5307037559162898e-01
7.5655919124439996e-01 1.7004440808755550e+01 -1.1522751402503468e-02
ITEM: ATOMS id type xs ys zs
1 1 0.203479 0.069772 0.66735
2 1 0.0475685 0.193324 0.165231
3 1 0.29769 0.186498 0.333452
4 1 0.449512 0.065112 0.836845
5 1 0.206049 0.314715 0.665742
6 1 0.0488543 0.435625 0.165038
7 1 0.294032 0.438923 0.331028
8 1 0.449222 0.31476 0.831437
9 1 0.204767 0.561415 0.670796
10 1 0.0505518 0.696031 0.166263
11 1 0.290257 0.692238 0.331305
12 1 0.454221 0.559211 0.83164
13 1 0.206763 0.808932 0.662554
14 1 0.0461865 0.941449 0.164819
15 1 0.299932 0.937363 0.324843
16 1 0.454295 0.811095 0.830462
17 1 0.708682 0.0662996 0.679065
18 1 0.543788 0.189329 0.168548
19 1 0.794298 0.189221 0.331861
20 1 0.954408 0.062458 0.831055
21 1 0.703908 0.304417 0.672182
22 1 0.54441 0.439289 0.160409
23 1 0.793874 0.433516 0.328691
24 1 0.957588 0.317564 0.830788
25 1 0.703218 0.556618 0.666373
26 1 0.54503 0.687033 0.171451
27 1 0.799902 0.690733 0.332641
28 1 0.953371 0.56165 0.834942
29 1 0.699893 0.814146 0.672292
30 1 0.541242 0.934946 0.167409
31 1 0.795663 0.94382 0.336432
32 1 0.956847 0.811472 0.82491
33 2 0.0902658 0.0620846 0.988439
34 2 0.161257 0.190729 0.497207
35 2 0.408347 0.184679 0.00748641
36 2 0.345895 0.0573233 0.500225
37 2 0.150617 0.0600719 0.287461
38 2 0.0939375 0.188907 0.782103
39 2 0.344609 0.18563 0.708596
40 2 0.409275 0.0658051 0.21918
41 2 0.0131123 0.064414 0.597589
42 2 0.229128 0.183816 0.0976497
43 2 0.489092 0.182557 0.404729
44 2 0.262111 0.0642075 0.898409
45 2 0.0963776 0.31125 0.993062
46 2 0.15494 0.440021 0.49277
47 2 0.403471 0.437117 0.00555526
48 2 0.339553 0.311677 0.500991
49 2 0.159809 0.308629 0.291837
50 2 0.0995374 0.44162 0.790028
51 2 0.345374 0.43573 0.711276
52 2 0.39631 0.312299 0.211614
53 2 0.0181345 0.317396 0.602267
54 2 0.23397 0.437157 0.103242
55 2 0.488107 0.433854 0.400635
56 2 0.265524 0.310446 0.89351
57 2 0.0894605 0.567532 0.997157
58 2 0.158646 0.687037 0.496987
59 2 0.410293 0.679883 0.00582733
60 2 0.337144 0.564387 0.507747
61 2 0.151378 0.56447 0.285645
62 2 0.0958144 0.684862 0.792553
63 2 0.3466 0.688589 0.711172
64 2 0.401877 0.558778 0.210677
65 2 0.0114304 0.5599 0.601357
66 2 0.243099 0.686414 0.105772
67 2 0.485541 0.686256 0.39771
68 2 0.268333 0.569301 0.90079
69 2 0.0954312 0.809767 0.991899
70 2 0.154879 0.94321 0.492802
71 2 0.409768 0.934301 0.00636
72 2 0.339384 0.815745 0.503104
73 2 0.150411 0.817435 0.292497
74 2 0.0960373 0.938111 0.777994
75 2 0.343771 0.935288 0.710361
76 2 0.401981 0.805848 0.205349
77 2 0.012705 0.809878 0.596564
78 2 0.236348 0.930842 0.103005
79 2 0.487395 0.933047 0.39367
80 2 0.260174 0.805221 0.893523
81 2 0.588206 0.0624058 0.998451
82 2 0.659481 0.18306 0.49826
83 2 0.912196 0.186509 0.00558656
84 2 0.837939 0.0691639 0.512404
85 2 0.651354 0.0649294 0.291445
86 2 0.590635 0.188412 0.792488
87 2 0.852577 0.190928 0.711105
88 2 0.901188 0.0653029 0.211431
89 2 0.5111 0.0619536 0.611212
90 2 0.738228 0.189259 0.104643
91 2 0.986563 0.190981 0.400148
92 2 0.761022 0.0627444 0.902554
93 2 0.585628 0.314853 0.992581
94 2 0.663181 0.430078 0.497645
95 2 0.911276 0.440649 0.0037333
96 2 0.839778 0.305578 0.508946
97 2 0.652636 0.316271 0.285836
98 2 0.592313 0.434148 0.789783
99 2 0.843464 0.432857 0.718444
100 2 0.906838 0.31655 0.209156
101 2 0.512559 0.307219 0.602682
102 2 0.738501 0.440452 0.0990478
103 2 0.982465 0.431708 0.39942
104 2 0.759523 0.301832 0.898943
105 2 0.593009 0.562911 0.99613
106 2 0.660079 0.690026 0.490302
107 2 0.910281 0.689142 0.0084361
108 2 0.840739 0.561013 0.499517
109 2 0.654952 0.560654 0.281428
110 2 0.602884 0.684365 0.791294
111 2 0.849044 0.687908 0.708357
112 2 0.910382 0.561562 0.215701
113 2 0.515024 0.566752 0.598437
114 2 0.743065 0.689601 0.107369
115 2 0.98947 0.694033 0.392001
116 2 0.768347 0.565414 0.906341
117 2 0.588987 0.808794 0.995753
118 2 0.658584 0.937487 0.502351
119 2 0.912562 0.932176 0.000631959
120 2 0.834341 0.811687 0.507647
121 2 0.660483 0.818736 0.283352
122 2 0.596189 0.938634 0.792664
123 2 0.842675 0.932478 0.722776
124 2 0.90301 0.815328 0.213234
125 2 0.515676 0.815105 0.607653
126 2 0.742 0.933862 0.0971056
127 2 0.984183 0.935257 0.40135
128 2 0.763648 0.813755 0.894928
129 3 0.0734779 0.066724 0.431208
130 3 0.173036 0.185616 0.92596
131 3 0.420189 0.187932 0.560845
132 3 0.328042 0.0643948 0.0719527
133 3 0.0784657 0.311777 0.437226
134 3 0.172773 0.436703 0.934859
135 3 0.423452 0.436449 0.564995
136 3 0.330633 0.309999 0.0602396
137 3 0.0824095 0.567499 0.433657
138 3 0.173892 0.683914 0.941606
139 3 0.41905 0.686916 0.563629
140 3 0.32433 0.562576 0.0651872
141 3 0.0739989 0.814397 0.436427
142 3 0.166654 0.935268 0.928989
143 3 0.41889 0.940011 0.56514
144 3 0.331365 0.812155 0.0533709
145 3 0.577327 0.0544146 0.442918
146 3 0.664658 0.188593 0.934706
147 3 0.922808 0.190571 0.565708
148 3 0.830386 0.0593906 0.064259
149 3 0.581297 0.310802 0.436695
150 3 0.671429 0.435418 0.940229
151 3 0.918187 0.442397 0.566391
152 3 0.829599 0.314895 0.0626762
153 3 0.582972 0.563094 0.433668
154 3 0.671608 0.68756 0.939836
155 3 0.916627 0.687328 0.55676
156 3 0.831284 0.566625 0.0658728
157 3 0.581184 0.812304 0.43234
158 3 0.671968 0.933154 0.941495
159 3 0.917959 0.941989 0.570189
160 3 0.837329 0.816351 0.0620865
ITEM: TIMESTEP
1500
ITEM: NUMBER OF ATOMS
160
ITEM: BOX BOUNDS xy xz yz pp pp pp
5.2250437912782155e-01 2.0188020811616827e+01 -1.0328587754905863e-01
4.0725719695539625e-01 1.8845827580679249e+01 -5.4588931706269599e-02
7.3193958514652901e-01 1.7029060414853426e+01 9.1084777634564129e-02
ITEM: ATOMS id type xs ys zs
1 1 0.203157 0.0571806 0.672418
2 1 0.0496968 0.18102 0.166212
3 1 0.299642 0.182551 0.329978
4 1 0.45208 0.0639596 0.825242
5 1 0.200442 0.315445 0.668594
6 1 0.0484895 0.437831 0.165241
7 1 0.297164 0.434738 0.324453
8 1 0.452063 0.316476 0.818618
9 1 0.192245 0.568663 0.669433
10 1 0.0508926 0.687816 0.170998
11 1 0.300066 0.69364 0.329474
12 1 0.452904 0.563826 0.831478
13 1 0.198621 0.804922 0.667547
14 1 0.0463977 0.937401 0.16918
15 1 0.293545 0.943421 0.334377
16 1 0.453398 0.81745 0.824741
17 1 0.703403 0.0663801 0.670366
18 1 0.548136 0.190623 0.164235
19 1 0.797255 0.1887 0.325185
20 1 0.959785 0.0623524 0.834542
21 1 0.703714 0.313933 0.67036
22 1 0.546065 0.434905 0.169053
23 1 0.797709 0.433753 0.324595
24 1 0.952578 0.31608 0.828719
25 1 0.705066 0.560858 0.671187
26 1 0.539918 0.692712 0.168254
27 1 0.794048 0.682971 0.334201
28 1 0.94919 0.559327 0.829712
29 1 0.700352 0.816749 0.682628
30 1 0.553139 0.942582 0.167436
31 1 0.793788 0.940054 0.332777
32 1 0.952308 0.817208 0.831246
33 2 0.0935493 0.0569867 0.994951
34 2 0.170706 0.186399 0.489353
35 2 0.415723 0.184771 0.991494
36 2 0.331823 0.0572759 0.510982
37 2 0.153727 0.0595269 0.287022
38 2 0.0998512 0.192807 0.790796
39 2 0.341144 0.187888 0.709665
40 2 0.407858 0.0632682 0.215304
41 2 0.0173357 0.0730222 0.604856
42 2 0.24184 0.184543 0.102977
43 2 0.48644 0.190117 0.400089
44 2 0.266284 0.058691 0.894449
45 2 0.0935079 0.313432 0.995992
46 2 0.166106 0.441408 0.491573
47 2 0.406589 0.435669 0.00137808
48 2 0.337704 0.31015 0.503189
49 2 0.153799 0.307336 0.28668
50 2 0.095638 0.438051 0.791655
51 2 0.336211 0.448312 0.708704
52 2 0.405351 0.307088 0.206085
53 2 0.0111174 0.312165 0.595468
54 2 0.245086 0.428137 0.095428
55 2 0.481834 0.436425 0.397666
56 2 0.263492 0.300901 0.895464
57 2 0.0934234 0.563761 0.994075
58 2 0.157693 0.689331 0.487684
59 2 0.417684 0.685864 0.00388306
60 2 0.331867 0.564518 0.500242
61 2 0.154967 0.558023 0.284964
62 2 0.0868125 0.690344 0.799949
63 2 0.346513 0.684799 0.715944
64 2 0.402999 0.564017 0.213406
65 2 0.010199 0.556609 0.596851
66 2 0.244725 0.682746 0.0972536
67 2 0.486387 0.688932 0.404943
68 2 0.266374 0.561766 0.897269
69 2 0.0891521 0.813987 0.997435
70 2 0.158977 0.943444 0.503336
71 2 0.412934 0.938572 0.00942071
72 2 0.33399 0.81725 0.504339
73 2 0.152343 0.814054 0.294297
74 2 0.100566 0.93153 0.790528
75 2 0.342667 0.935035 0.708465
76 2 0.401007 0.817374 0.211746
77 2 0.0158878 0.807419 0.605187
78 2 0.241819 0.933023 0.10411
79 2 0.489514 0.946054 0.39151
80 2 0.266045 0.808419 0.901179
81 2 0.587538 0.0724331 0.996275
82 2 0.660342 0.1894 0.497087
83 2 0.917475 0.191845 0.999024
84 2 0.840454 0.0597603 0.50966
85 2 0.654263 0.0650444 0.287607
86 2 0.595739 0.185689 0.786537
87 2 0.851072 0.185127 0.718488
88 2 0.904816 0.0572993 0.212486
89 2 0.507609 0.0623464 0.599661
90 2 0.744527 0.195873 0.0903981
91 2 0.988325 0.189104 0.403665
92 2 0.756556 0.0612484 0.904685
93 2 0.585105 0.310938 0.984687
94 2 0.660207 0.43916 0.495096
95 2 0.911007 0.440923 0.00362589
96 2 0.832772 0.309519 0.50227
97 2 0.653891 0.306513 0.290417
98 2 0.594686 0.438899 0.787664
99 2 0.849406 0.439355 0.708864
100 2 0.908424 0.30852 0.202239
101 2 0.507491 0.315935 0.596448
102 2 0.738814 0.429269 0.105606
103 2 0.988235 0.43487 0.394245
104 2 0.764317 0.325723 0.896078
105 2 0.586998 0.567598 0.997814
106 2 0.658034 0.69109 0.498825
107 2 0.913576 0.684067 0.00816031
108 2 0.83711 0.559979 0.498343
109 2 0.655765 0.556769 0.288934
110 2 0.596271 0.687931 0.790042
111 2 0.844625 0.690966 0.712831
112 2 0.904998 0.561597 0.213296
113 2 0.502004 0.56539 0.608579
114 2 0.737955 0.687757 0.101959
115 2 0.982067 0.691366 0.406648
116 2 0.765386 0.561948 0.90653
117 2 0.582599 0.809175 0.994789
118 2 0.658358 0.935684 0.491619
119 2 0.90851 0.934049 0.00773586
120 2 0.837293 0.812228 0.508887
121 2 0.649983 0.805036 0.288615
122 2 0.59362 0.943802 0.793996
123 2 0.846298 0.945014 0.72005
124 2 0.910442 0.809318 0.220039
125 2 0.506452 0.81916 0.601577
126 2 0.736973 0.933446 0.101152
127 2 0.983988 0.938436 0.409038
128 2 0.760926 0.812809 0.905395
129 3 0.0833605 0.0675315 0.437735
130 3 0.17545 0.183616 0.939826
131 3 0.413549 0.188483 0.559545
132 3 0.336453 0.0643509 0.0634965
133 3 0.084711 0.309442 0.4396
134 3 0.171407 0.431082 0.936417
135 3 0.407076 0.43619 0.556744
136 3 0.341859 0.305863 0.0560836
137 3 0.0835806 0.556522 0.435013
138 3 0.169212 0.688074 0.941239
139 3 0.411468 0.69012 0.562525
140 3 0.332862 0.559476 0.056132
141 3 0.0737234 0.812353 0.435738
142 3 0.174271 0.934683 0.943927
143 3 0.419989 0.940177 0.56432
144 3 0.332905 0.808239 0.060171
145 3 0.580722 0.0638063 0.437945
146 3 0.670407 0.189617 0.932163
147 3 0.918229 0.184533 0.567351
148 3 0.83703 0.0688529 0.0595949
149 3 0.579056 0.318988 0.431134
150 3 0.666128 0.440909 0.940908
151 3 0.91617 0.437599 0.557417
152 3 0.834785 0.311594 0.0538586
153 3 0.579112 0.561021 0.438159
154 3 0.66897 0.686909 0.940987
155 3 0.918546 0.682534 0.565287
156 3 0.819653 0.561078 0.0692086
157 3 0.581034 0.814524 0.439061
158 3 0.67063 0.940407 0.938188
159 3 0.924273 0.936377 0.569959
160 3 0.837544 0.814245 0.0715057
ITEM: TIMESTEP
2000
ITEM: NUMBER OF ATOMS
160
ITEM: BOX BOUNDS xy xz yz pp pp pp
6.9613756081386791e-01 2.0238041958609561e+01 8.0905212885708899e-02
3.8943910141143717e-01 1.8920321498696552e+01 -1.5125693462219862e-02
7.1995234766973337e-01 1.7041047652330217e+01 1.4776060010788475e-01
ITEM: ATOMS id type xs ys zs
1 1 0.203159 0.0521949 0.667912
2 1 0.0435728 0.187455 0.173389
3 1 0.29701 0.186854 0.33454
4 1 0.453791 0.0615025 0.826334
5 1 0.205544 0.310606 0.673764
6 1 0.050379 0.436576 0.176963
7 1 0.294671 0.441656 0.328051
8 1 0.446418 0.31076 0.82363
9 1 0.203685 0.558243 0.670991
10 1 0.0465529 0.686472 0.171319
11 1 0.296985 0.689231 0.334029
12 1 0.455159 0.563953 0.830162
13 1 0.205071 0.812163 0.67437
14 1 0.0431654 0.940615 0.166461
15 1 0.295775 0.936635 0.328021
16 1 0.451436 0.804969 0.829372
17 1 0.696031 0.0618271 0.669531
18 1 0.546029 0.188858 0.165257
19 1 0.795814 0.18565 0.337361
20 1 0.956133 0.0626213 0.826773
21 1 0.700098 0.317336 0.664121
22 1 0.537865 0.434311 0.162297
23 1 0.800519 0.445612 0.336485
24 1 0.957245 0.308171 0.822453
25 1 0.699937 0.560742 0.663657
26 1 0.551251 0.694051 0.166275
27 1 0.802578 0.685665 0.331203
28 1 0.957191 0.56372 0.829633
29 1 0.706577 0.812012 0.66252
30 1 0.547937 0.950317 0.164905
31 1 0.797347 0.942848 0.325989
32 1 0.954519 0.817273 0.832429
33 2 0.0913109 0.0668985 0.998262
34 2 0.161236 0.178553 0.497953
35 2 0.415842 0.184667 0.000947383
36 2 0.336068 0.0658369 0.504755
37 2 0.153032 0.0612968 0.286796
38 2 0.0979041 0.178865 0.779896
39 2 0.343779 0.184615 0.710676
40 2 0.39499 0.0638659 0.205174
41 2 0.0148432 0.0622978 0.595282
42 2 0.2378 0.192748 0.0991165
43 2 0.485548 0.187939 0.409804
44 2 0.259834 0.0659269 0.890005
45 2 0.0902575 0.309424 0.994783
46 2 0.159495 0.426758 0.498592
47 2 0.404077 0.435585 0.996339
48 2 0.335117 0.314749 0.512401
49 2 0.156387 0.303862 0.292083
50 2 0.0976346 0.432882 0.789314
51 2 0.344799 0.437808 0.708586
52 2 0.402201 0.312287 0.210581
53 2 0.013888 0.307815 0.607708
54 2 0.23323 0.443141 0.100951
55 2 0.481577 0.438372 0.397204
56 2 0.26453 0.305479 0.903414
57 2 0.0889798 0.559334 0.995289
58 2 0.168917 0.687731 0.497672
59 2 0.40539 0.686408 0.00118791
60 2 0.337997 0.555464 0.500434
61 2 0.153725 0.561503 0.295555
62 2 0.0976666 0.68755 0.792932
63 2 0.34333 0.69159 0.707074
64 2 0.408225 0.570455 0.212223
65 2 0.0192187 0.562386 0.606073
66 2 0.238612 0.683695 0.100299
67 2 0.483415 0.688301 0.392029
68 2 0.267021 0.559543 0.89707
69 2 0.0917877 0.809392 0.00477092
70 2 0.160202 0.932804 0.492538
71 2 0.408276 0.936661 0.00804326
72 2 0.338148 0.814849 0.501982
73 2 0.150183 0.811689 0.286838
74 2 0.0975851 0.933248 0.794782
75 2 0.348231 0.933405 0.707172
76 2 0.411315 0.814455 0.215548
77 2 0.00528694 0.813617 0.597832
78 2 0.235952 0.934272 0.107612
79 2 0.488442 0.945994 0.394682
80 2 0.264768 0.816935 0.904884
81 2 0.588717 0.0684206 0.994464
82 2 0.661124 0.187523 0.495418
83 2 0.910589 0.19028 0.00361971
84 2 0.833064 0.0588627 0.513891
85 2 0.650346 0.0696334 0.292282
86 2 0.600654 0.187537 0.797614
87 2 0.840138 0.192508 0.710564
88 2 0.902266 0.0681633 0.213953
89 2 0.508979 0.0570631 0.600552
90 2 0.734207 0.189272 0.106329
91 2 0.988351 0.183809 0.407142
92 2 0.76356 0.069679 0.899562
93 2 0.584091 0.313134 0.98906
94 2 0.653831 0.443583 0.491693
95 2 0.914929 0.438152 0.00821768
96 2 0.843797 0.31104 0.502942
97 2 0.655486 0.311519 0.28641
98 2 0.593526 0.434428 0.788438
99 2 0.850209 0.442307 0.709999
100 2 0.904939 0.314923 0.22037
101 2 0.514578 0.315586 0.595527
102 2 0.742221 0.434688 0.102428
103 2 0.987044 0.438057 0.40498
104 2 0.766279 0.317446 0.901955
105 2 0.587123 0.561147 0.996826
106 2 0.662008 0.688586 0.488298
107 2 0.91554 0.688541 0.999976
108 2 0.8436 0.557511 0.511211
109 2 0.650146 0.559564 0.275978
110 2 0.59773 0.693877 0.785838
111 2 0.846044 0.686118 0.71498
112 2 0.909697 0.559034 0.208932
113 2 0.513222 0.569887 0.595128
114 2 0.745312 0.686456 0.100214
115 2 0.990116 0.691306 0.399039
116 2 0.761794 0.561088 0.906126
117 2 0.587452 0.816531 0.987309
118 2 0.663073 0.939508 0.494267
119 2 0.913327 0.944238 0.998441
120 2 0.839871 0.810248 0.496973
121 2 0.654966 0.810491 0.290833
122 2 0.595068 0.931621 0.785405
123 2 0.845059 0.937141 0.721297
124 2 0.904674 0.814702 0.214426
125 2 0.51052 0.813253 0.595254
126 2 0.731138 0.937348 0.0969562
127 2 0.984967 0.931692 0.392537
128 2 0.765377 0.813285 0.903464
129 3 0.0798591 0.0558629 0.437436
130 3 0.168414 0.189699 0.931471
131 3 0.412427 0.190788 0.567442
132 3 0.326257 0.0602126 0.0500921
133 3 0.0862215 0.310523 0.439695
134 3 0.171615 0.437673 0.932221
135 3 0.422012 0.443185 0.562673
136 3 0.329517 0.312544 0.0623221
137 3 0.073108 0.557281 0.437817
138 3 0.172846 0.688296 0.93965
139 3 0.416452 0.686566 0.554048
140 3 0.331408 0.561879 0.0598903
141 3 0.083138 0.807775 0.439544
142 3 0.170545 0.939252 0.942628
143 3 0.418395 0.937131 0.557381
144 3 0.33631 0.811357 0.0725103
145 3 0.577087 0.0611915 0.441816
146 3 0.672491 0.195952 0.941947
147 3 0.917434 0.188525 0.565248
148 3 0.829624 0.057782 0.0640445
149 3 0.580079 0.307436 0.431975
150 3 0.666282 0.43946 0.93972
151 3 0.931255 0.435409 0.572413
152 3 0.829589 0.308589 0.0742069
153 3 0.577289 0.564527 0.430989
154 3 0.674166 0.692763 0.933753
155 3 0.922105 0.684007 0.570551
156 3 0.83209 0.56166 0.0635469
157 3 0.57662 0.812136 0.432524
158 3 0.672739 0.94531 0.932327
159 3 0.911965 0.93238 0.567239
160 3 0.831772 0.819645 0.0689259
ITEM: TIMESTEP
2500
ITEM: NUMBER OF ATOMS
160
ITEM: BOX BOUNDS xy xz yz pp pp pp
6.6494802604232561e-01 2.0178504223244037e+01 1.2371325869884984e-02
3.2037178492258611e-01 1.8768859472839722e+01 -3.7319076583485163e-02
7.3130638304782136e-01 1.7029693616952091e+01 -7.2768742237794712e-02
ITEM: ATOMS id type xs ys zs
1 1 0.200328 0.0680779 0.671211
2 1 0.0458747 0.184373 0.173615
3 1 0.302177 0.191259 0.332095
4 1 0.454187 0.0557627 0.8162
5 1 0.199776 0.310031 0.672045
6 1 0.0538556 0.43579 0.172459
7 1 0.300989 0.436872 0.335876
8 1 0.457867 0.316823 0.836825
9 1 0.203746 0.566497 0.669785
10 1 0.0485652 0.684842 0.17656
11 1 0.298604 0.68765 0.334686
12 1 0.448123 0.560254 0.830863
13 1 0.204283 0.810105 0.667146
14 1 0.0431112 0.936465 0.17684
15 1 0.296685 0.942765 0.333165
16 1 0.448604 0.818297 0.82647
17 1 0.706373 0.0636284 0.669899
18 1 0.545098 0.186133 0.167298
19 1 0.797675 0.189264 0.329541
20 1 0.956299 0.0672499 0.835183
21 1 0.706379 0.313801 0.667722
22 1 0.547957 0.439427 0.165079
23 1 0.795683 0.436125 0.329355
24 1 0.952472 0.314286 0.829701
25 1 0.699412 0.565519 0.66997
26 1 0.547553 0.687962 0.170645
27 1 0.794171 0.683549 0.324987
28 1 0.959361 0.562752 0.830112
29 1 0.703889 0.805372 0.671882
30 1 0.540895 0.935745 0.166465
31 1 0.797741 0.935331 0.329703
32 1 0.95009 0.816147 0.828916
33 2 0.0881556 0.0630082 0.00312347
34 2 0.164902 0.187697 0.497794
35 2 0.411532 0.18839 0.00233855
36 2 0.342789 0.0655942 0.50765
37 2 0.15511 0.0557151 0.284405
38 2 0.098919 0.190247 0.79226
39 2 0.34888 0.189038 0.710688
40 2 0.399311 0.0612409 0.208184
41 2 0.0124431 0.0641903 0.602322
42 2 0.239703 0.1861 0.111625
43 2 0.491545 0.188324 0.396691
44 2 0.260568 0.0732859 0.90217
45 2 0.0894866 0.304371 0.997129
46 2 0.163047 0.434725 0.503515
47 2 0.405815 0.438831 0.00344846
48 2 0.343488 0.310015 0.505397
49 2 0.155744 0.30748 0.29457
50 2 0.0945178 0.437994 0.785831
51 2 0.341916 0.433809 0.71228
52 2 0.408467 0.316949 0.213587
53 2 0.0121844 0.311127 0.601562
54 2 0.236024 0.441006 0.103053
55 2 0.486084 0.435476 0.396193
56 2 0.259042 0.316732 0.908612
57 2 0.092285 0.565261 0.995134
58 2 0.159127 0.682505 0.500357
59 2 0.40962 0.697714 0.00280364
60 2 0.337758 0.563655 0.51026
61 2 0.156079 0.552672 0.291374
62 2 0.0946185 0.695053 0.786121
63 2 0.350899 0.687556 0.708062
64 2 0.403788 0.563872 0.211501
65 2 0.0113854 0.562713 0.593243
66 2 0.23688 0.691149 0.105877
67 2 0.490935 0.68489 0.396171