ITEM: TIMESTEP
0
ITEM: NUMBER OF ATOMS
160
ITEM: BOX BOUNDS xy xz yz pp pp pp
6.3187782271582771e-01 2.0236522177284172e+01 0.0000000000000000e+00
2.3913011992998523e-01 1.8922869880070014e+01 0.0000000000000000e+00
7.1044000000000007e-01 1.7050559999999994e+01 0.0000000000000000e+00
ITEM: ATOMS id type xs ys zs
1 1 0.207821 0.0625 0.670903
2 1 0.0421792 0.1875 0.170903
3 1 0.292179 0.1875 0.329097
4 1 0.457821 0.0625 0.829097
5 1 0.207821 0.3125 0.670903
6 1 0.0421792 0.4375 0.170903
7 1 0.292179 0.4375 0.329097
8 1 0.457821 0.3125 0.829097
9 1 0.207821 0.5625 0.670903
10 1 0.0421792 0.6875 0.170903
11 1 0.292179 0.6875 0.329097
12 1 0.457821 0.5625 0.829097
13 1 0.207821 0.8125 0.670903
14 1 0.0421792 0.9375 0.170903
15 1 0.292179 0.9375 0.329097
16 1 0.457821 0.8125 0.829097
17 1 0.707821 0.0625 0.670903
18 1 0.542179 0.1875 0.170903
19 1 0.792179 0.1875 0.329097
20 1 0.957821 0.0625 0.829097
21 1 0.707821 0.3125 0.670903
22 1 0.542179 0.4375 0.170903
23 1 0.792179 0.4375 0.329097
24 1 0.957821 0.3125 0.829097
25 1 0.707821 0.5625 0.670903
26 1 0.542179 0.6875 0.170903
27 1 0.792179 0.6875 0.329097
28 1 0.957821 0.5625 0.829097
29 1 0.707821 0.8125 0.670903
30 1 0.542179 0.9375 0.170903
31 1 0.792179 0.9375 0.329097
32 1 0.957821 0.8125 0.829097
33 2 0.0816714 0.0625 0.00157974
34 2 0.168329 0.1875 0.50158
35 2 0.418329 0.1875 0.99842
36 2 0.331671 0.0625 0.49842
37 2 0.149527 0.0625 0.287337
38 2 0.100473 0.1875 0.787337
39 2 0.350473 0.1875 0.712663
40 2 0.399527 0.0625 0.212663
41 2 0.0159156 0.0625 0.614397
42 2 0.234084 0.1875 0.114397
43 2 0.484084 0.1875 0.385603
44 2 0.265916 0.0625 0.885603
45 2 0.0816714 0.3125 0.00157974
46 2 0.168329 0.4375 0.50158
47 2 0.418329 0.4375 0.99842
48 2 0.331671 0.3125 0.49842
49 2 0.149527 0.3125 0.287337
50 2 0.100473 0.4375 0.787337
51 2 0.350473 0.4375 0.712663
52 2 0.399527 0.3125 0.212663
53 2 0.0159156 0.3125 0.614397
54 2 0.234084 0.4375 0.114397
55 2 0.484084 0.4375 0.385603
56 2 0.265916 0.3125 0.885603
57 2 0.0816714 0.5625 0.00157974
58 2 0.168329 0.6875 0.50158
59 2 0.418329 0.6875 0.99842
60 2 0.331671 0.5625 0.49842
61 2 0.149527 0.5625 0.287337
62 2 0.100473 0.6875 0.787337
63 2 0.350473 0.6875 0.712663
64 2 0.399527 0.5625 0.212663
65 2 0.0159156 0.5625 0.614397
66 2 0.234084 0.6875 0.114397
67 2 0.484084 0.6875 0.385603
68 2 0.265916 0.5625 0.885603
69 2 0.0816714 0.8125 0.00157974
70 2 0.168329 0.9375 0.50158
71 2 0.418329 0.9375 0.99842
72 2 0.331671 0.8125 0.49842
73 2 0.149527 0.8125 0.287337
74 2 0.100473 0.9375 0.787337
75 2 0.350473 0.9375 0.712663
76 2 0.399527 0.8125 0.212663
77 2 0.0159156 0.8125 0.614397
78 2 0.234084 0.9375 0.114397
79 2 0.484084 0.9375 0.385603
80 2 0.265916 0.8125 0.885603
81 2 0.581671 0.0625 0.00157974
82 2 0.668329 0.1875 0.50158
83 2 0.918329 0.1875 0.99842
84 2 0.831671 0.0625 0.49842
85 2 0.649527 0.0625 0.287337
86 2 0.600473 0.1875 0.787337
87 2 0.850473 0.1875 0.712663
88 2 0.899527 0.0625 0.212663
89 2 0.515916 0.0625 0.614397
90 2 0.734084 0.1875 0.114397
91 2 0.984084 0.1875 0.385603
92 2 0.765916 0.0625 0.885603
93 2 0.581671 0.3125 0.00157974
94 2 0.668329 0.4375 0.50158
95 2 0.918329 0.4375 0.99842
96 2 0.831671 0.3125 0.49842
97 2 0.649527 0.3125 0.287337
98 2 0.600473 0.4375 0.787337
99 2 0.850473 0.4375 0.712663
100 2 0.899527 0.3125 0.212663
101 2 0.515916 0.3125 0.614397
102 2 0.734084 0.4375 0.114397
103 2 0.984084 0.4375 0.385603
104 2 0.765916 0.3125 0.885603
105 2 0.581671 0.5625 0.00157974
106 2 0.668329 0.6875 0.50158
107 2 0.918329 0.6875 0.99842
108 2 0.831671 0.5625 0.49842
109 2 0.649527 0.5625 0.287337
110 2 0.600473 0.6875 0.787337
111 2 0.850473 0.6875 0.712663
112 2 0.899527 0.5625 0.212663
113 2 0.515916 0.5625 0.614397
114 2 0.734084 0.6875 0.114397
115 2 0.984084 0.6875 0.385603
116 2 0.765916 0.5625 0.885603
117 2 0.581671 0.8125 0.00157974
118 2 0.668329 0.9375 0.50158
119 2 0.918329 0.9375 0.99842
120 2 0.831671 0.8125 0.49842
121 2 0.649527 0.8125 0.287337
122 2 0.600473 0.9375 0.787337
123 2 0.850473 0.9375 0.712663
124 2 0.899527 0.8125 0.212663
125 2 0.515916 0.8125 0.614397
126 2 0.734084 0.9375 0.114397
127 2 0.984084 0.9375 0.385603
128 2 0.765916 0.8125 0.885603
129 3 0.080233 0.0625 0.437942
130 3 0.169767 0.1875 0.937942
131 3 0.419767 0.1875 0.562058
132 3 0.330233 0.0625 0.0620581
133 3 0.080233 0.3125 0.437942
134 3 0.169767 0.4375 0.937942
135 3 0.419767 0.4375 0.562058
136 3 0.330233 0.3125 0.0620581
137 3 0.080233 0.5625 0.437942
138 3 0.169767 0.6875 0.937942
139 3 0.419767 0.6875 0.562058
140 3 0.330233 0.5625 0.0620581
141 3 0.080233 0.8125 0.437942
142 3 0.169767 0.9375 0.937942
143 3 0.419767 0.9375 0.562058
144 3 0.330233 0.8125 0.0620581
145 3 0.580233 0.0625 0.437942
146 3 0.669767 0.1875 0.937942
147 3 0.919767 0.1875 0.562058
148 3 0.830233 0.0625 0.0620581
149 3 0.580233 0.3125 0.437942
150 3 0.669767 0.4375 0.937942
151 3 0.919767 0.4375 0.562058
152 3 0.830233 0.3125 0.0620581
153 3 0.580233 0.5625 0.437942
154 3 0.669767 0.6875 0.937942
155 3 0.919767 0.6875 0.562058
156 3 0.830233 0.5625 0.0620581
157 3 0.580233 0.8125 0.437942
158 3 0.669767 0.9375 0.937942
159 3 0.919767 0.9375 0.562058
160 3 0.830233 0.8125 0.0620581
ITEM: TIMESTEP
500
ITEM: NUMBER OF ATOMS
160
ITEM: BOX BOUNDS xy xz yz pp pp pp
6.3187782271582771e-01 2.0236522177284172e+01 0.0000000000000000e+00
2.3913011992998523e-01 1.8922869880070014e+01 0.0000000000000000e+00
7.1044000000000007e-01 1.7050559999999994e+01 0.0000000000000000e+00
ITEM: ATOMS id type xs ys zs
1 1 0.190356 0.070066 0.679019
2 1 0.0549885 0.18296 0.182306
3 1 0.304837 0.195152 0.309198
4 1 0.439489 0.0717497 0.808207
5 1 0.184756 0.317294 0.685385
6 1 0.0575424 0.441794 0.190148
7 1 0.310372 0.441146 0.311638
8 1 0.444018 0.310358 0.813984
9 1 0.192577 0.555676 0.691883
10 1 0.0652673 0.68959 0.19516
11 1 0.305994 0.684371 0.314121
12 1 0.43482 0.561715 0.818112
13 1 0.187661 0.806885 0.685326
14 1 0.0569286 0.936743 0.193214
15 1 0.313376 0.938911 0.301518
16 1 0.442236 0.807076 0.800291
17 1 0.697265 0.0554674 0.699298
18 1 0.567338 0.198064 0.192703
19 1 0.805411 0.177113 0.306436
20 1 0.944769 0.0633891 0.811345
21 1 0.684822 0.319463 0.691857
22 1 0.557902 0.441407 0.182471
23 1 0.802404 0.434212 0.298767
24 1 0.93559 0.312056 0.802538
25 1 0.678941 0.56261 0.68928
26 1 0.549725 0.681173 0.191994
27 1 0.80523 0.686512 0.309239
28 1 0.937481 0.564403 0.804453
29 1 0.696173 0.804459 0.696632
30 1 0.563171 0.939069 0.206518
31 1 0.803024 0.931198 0.320759
32 1 0.943759 0.807151 0.801637
33 2 0.0875095 0.0653933 0.0112332
34 2 0.161764 0.193987 0.522036
35 2 0.411521 0.193917 0.974087
36 2 0.335176 0.0552712 0.477961
37 2 0.160824 0.0571738 0.313663
38 2 0.101592 0.185352 0.800149
39 2 0.342209 0.198865 0.678415
40 2 0.398694 0.0656516 0.188082
41 2 0.000635241 0.0655174 0.5931
42 2 0.248429 0.195019 0.0969609
43 2 0.50705 0.203605 0.412169
44 2 0.255521 0.0777473 0.90546
45 2 0.0878213 0.319137 0.0243497
46 2 0.158763 0.430979 0.527692
47 2 0.409661 0.439699 0.987525
48 2 0.334475 0.312058 0.471396
49 2 0.159478 0.311535 0.305646
50 2 0.0819173 0.43788 0.803285
51 2 0.341542 0.430223 0.693381
52 2 0.404358 0.31286 0.194018
53 2 0.999699 0.316205 0.596352
54 2 0.24291 0.441585 0.0888719
55 2 0.50879 0.439858 0.407169
56 2 0.253931 0.308052 0.902856
57 2 0.0820112 0.562728 0.0203696
58 2 0.164132 0.68425 0.525399
59 2 0.409763 0.690132 0.978694
60 2 0.339429 0.557466 0.478283
61 2 0.163019 0.56204 0.314345
62 2 0.0832255 0.693603 0.812585
63 2 0.338798 0.684617 0.688943
64 2 0.402279 0.573225 0.192883
65 2 0.000342511 0.561371 0.592964
66 2 0.247195 0.699658 0.0994371
67 2 0.500228 0.68154 0.407158
68 2 0.247167 0.570444 0.91158
69 2 0.0898111 0.819343 0.024832
70 2 0.158704 0.929417 0.516598
71 2 0.417809 0.943133 0.967054
72 2 0.346709 0.810936 0.470932
73 2 0.155174 0.812026 0.318111
74 2 0.0940677 0.938226 0.808543
75 2 0.339249 0.930286 0.697161
76 2 0.410724 0.816864 0.189608
77 2 0.00521507 0.808896 0.603541
78 2 0.25358 0.940973 0.0874657
79 2 0.507306 0.934957 0.41139
80 2 0.251262 0.81211 0.907923
81 2 0.590204 0.0640531 0.0298183
82 2 0.667429 0.183152 0.529221
83 2 0.914574 0.186975 0.981766
84 2 0.834572 0.0524659 0.494266
85 2 0.667076 0.0592757 0.32604
86 2 0.591536 0.189142 0.799796
87 2 0.837239 0.175734 0.690503
88 2 0.915596 0.0606414 0.189598
89 2 0.498252 0.0558428 0.596183
90 2 0.752724 0.194954 0.103587
91 2 0.00225455 0.18447 0.405401
92 2 0.754588 0.0758371 0.911091
93 2 0.584853 0.312312 0.0122993
94 2 0.669084 0.43444 0.523701
95 2 0.916692 0.437334 0.977834
96 2 0.836974 0.308049 0.467133
97 2 0.662407 0.31704 0.299172
98 2 0.586318 0.438619 0.812012
99 2 0.842842 0.434226 0.691393
100 2 0.916987 0.310878 0.184651
101 2 0.500075 0.313449 0.59468
102 2 0.755725 0.436775 0.0886964
103 2 0.00480426 0.439263 0.408511
104 2 0.754557 0.312823 0.906493
105 2 0.586153 0.55328 0.020921
106 2 0.663057 0.678421 0.520575
107 2 0.908789 0.68849 0.974785
108 2 0.837285 0.556364 0.474714
109 2 0.658921 0.555502 0.295231
110 2 0.584992 0.685212 0.819844
111 2 0.849599 0.685274 0.689584
112 2 0.906288 0.555825 0.185566
113 2 0.498808 0.556506 0.599695
114 2 0.746123 0.691547 0.0892036
115 2 0.00549879 0.69346 0.404562
116 2 0.7473 0.556915 0.900025
117 2 0.58546 0.817787 0.0298894
118 2 0.67102 0.935572 0.524444
119 2 0.91491 0.942268 0.981899
120 2 0.838576 0.804896 0.484637
121 2 0.66393 0.80807 0.30734
122 2 0.583505 0.944412 0.813331
123 2 0.844678 0.936067 0.698529
124 2 0.912553 0.803868 0.190821
125 2 0.502916 0.801212 0.598531
126 2 0.756996 0.939538 0.0979081
127 2 0.994843 0.925964 0.407758
128 2 0.739092 0.818589 0.899287
129 3 0.0974298 0.0633648 0.454202
130 3 0.15426 0.187354 0.952064
131 3 0.40499 0.191148 0.537345
132 3 0.35229 0.0636486 0.032188
133 3 0.0968654 0.314019 0.452462
134 3 0.14422 0.439955 0.949678
135 3 0.407334 0.437388 0.553541
136 3 0.342809 0.307974 0.0433636
137 3 0.102288 0.556667 0.456751
138 3 0.153264 0.699295 0.949874
139 3 0.400655 0.683815 0.544433
140 3 0.334627 0.551906 0.0511749
141 3 0.0909546 0.809261 0.459733
142 3 0.154308 0.942262 0.954976
143 3 0.398299 0.933001 0.541656
144 3 0.346913 0.81416 0.0479704
145 3 0.603123 0.0617215 0.468618
146 3 0.655433 0.194617 0.945258
147 3 0.900168 0.182822 0.549751
148 3 0.854615 0.065224 0.0459195
149 3 0.602289 0.312197 0.442507
150 3 0.655232 0.43747 0.951541
151 3 0.900208 0.44325 0.547722
152 3 0.844052 0.313745 0.0475353
153 3 0.601119 0.56347 0.44577
154 3 0.64058 0.687238 0.963399
155 3 0.901738 0.686849 0.542137
156 3 0.847304 0.561819 0.0387074
157 3 0.603678 0.81715 0.451425
158 3 0.645598 0.938209 0.9577
159 3 0.910385 0.935294 0.554645
160 3 0.842793 0.817799 0.0539373
ITEM: TIMESTEP
1000
ITEM: NUMBER OF ATOMS
160
ITEM: BOX BOUNDS xy xz yz pp pp pp
6.3187782271582771e-01 2.0236522177284172e+01 0.0000000000000000e+00
2.3913011992998523e-01 1.8922869880070014e+01 0.0000000000000000e+00
7.1044000000000007e-01 1.7050559999999994e+01 0.0000000000000000e+00
ITEM: ATOMS id type xs ys zs
1 1 0.197511 0.0469099 0.696671
2 1 0.0651685 0.187684 0.188634
3 1 0.308713 0.192323 0.305891
4 1 0.446553 0.0549887 0.81144
5 1 0.190766 0.318756 0.687355
6 1 0.0619633 0.431887 0.17821
7 1 0.293971 0.438269 0.307622
8 1 0.440732 0.308081 0.808693
9 1 0.189199 0.56958 0.676037
10 1 0.0572612 0.691903 0.189684
11 1 0.299075 0.688949 0.308753
12 1 0.453166 0.564143 0.809456
13 1 0.198141 0.810772 0.69478
14 1 0.0682219 0.94482 0.192457
15 1 0.302793 0.941264 0.329195
16 1 0.444938 0.805513 0.807173
17 1 0.689535 0.0729772 0.681842
18 1 0.554569 0.184297 0.184791
19 1 0.808695 0.184049 0.30377
20 1 0.933484 0.0706994 0.792977
21 1 0.678825 0.308979 0.696882
22 1 0.556742 0.430695 0.18077
23 1 0.812616 0.435462 0.302559
24 1 0.948337 0.321158 0.812803
25 1 0.685074 0.558768 0.690548
26 1 0.551807 0.692158 0.195712
27 1 0.805815 0.685351 0.309809
28 1 0.951206 0.558607 0.809124
29 1 0.688335 0.816272 0.685316
30 1 0.543906 0.938512 0.191846
31 1 0.803011 0.929716 0.300251
32 1 0.937909 0.812898 0.802293
33 2 0.0921799 0.0632826 0.0235597
34 2 0.168121 0.198908 0.516835
35 2 0.416106 0.189058 0.982484
36 2 0.333235 0.0567599 0.485411
37 2 0.167114 0.0583042 0.309471
38 2 0.0918624 0.192902 0.801224
39 2 0.345077 0.174688 0.710319
40 2 0.413927 0.0662983 0.19795
41 2 0.997951 0.0746553 0.592414
42 2 0.247297 0.182127 0.101096
43 2 0.501024 0.190275 0.410976
44 2 0.25709 0.060184 0.898234
45 2 0.0910884 0.311292 0.0254704
46 2 0.159414 0.43193 0.525266
47 2 0.417884 0.440328 0.987541
48 2 0.335101 0.32192 0.480808
49 2 0.172072 0.306789 0.300047
50 2 0.090258 0.442577 0.78975
51 2 0.329741 0.433977 0.699969
52 2 0.413321 0.305072 0.197074
53 2 0.996569 0.315784 0.595493
54 2 0.249193 0.429991 0.103147
55 2 0.494602 0.428343 0.392351
56 2 0.258688 0.304178 0.911954
57 2 0.0864294 0.55818 0.00488405
58 2 0.161933 0.692295 0.524487
59 2 0.42324 0.682076 0.975869
60 2 0.329776 0.566437 0.471665
61 2 0.155919 0.562927 0.30098
62 2 0.0877379 0.690373 0.796461
63 2 0.329829 0.690477 0.698586
64 2 0.408156 0.562359 0.203828
65 2 0.00845074 0.568526 0.599046
66 2 0.251063 0.68351 0.0880635
67 2 0.499432 0.686652 0.403489
68 2 0.252781 0.552975 0.901834
69 2 0.0821353 0.808877 0.0350652
70 2 0.165287 0.939726 0.52104
71 2 0.416715 0.934747 0.980157
72 2 0.335938 0.801491 0.47776
73 2 0.154052 0.816195 0.297282
74 2 0.0989875 0.933074 0.80269
75 2 0.343404 0.920448 0.692962
76 2 0.407764 0.817298 0.198772
77 2 0.998106 0.819207 0.597768
78 2 0.252404 0.93521 0.096419
79 2 0.49877 0.938678 0.408184
80 2 0.251975 0.809871 0.901042
81 2 0.584213 0.0530165 0.0243999
82 2 0.669005 0.191473 0.532143
83 2 0.921365 0.1819 0.982781
84 2 0.8295 0.0667325 0.474984
85 2 0.661847 0.069478 0.311655
86 2 0.596522 0.186892 0.798285
87 2 0.834099 0.197692 0.6987
88 2 0.915654 0.0583706 0.203268
89 2 0.503324 0.0694468 0.600375
90 2 0.747352 0.193219 0.101528
91 2 0.00115908 0.203398 0.390878
92 2 0.749908 0.0612744 0.903376
93 2 0.58134 0.303842 0.0105038
94 2 0.651715 0.442067 0.523829
95 2 0.910925 0.437741 0.980459
96 2 0.830954 0.317227 0.482611
97 2 0.674743 0.313314 0.300958
98 2 0.59191 0.431354 0.803333
99 2 0.838297 0.447116 0.699689
100 2 0.919336 0.309655 0.190912
101 2 0.493648 0.318004 0.600463
102 2 0.746385 0.435312 0.0975016
103 2 0.995778 0.441684 0.402918
104 2 0.755997 0.311123 0.905756
105 2 0.583612 0.559397 0.0254659
106 2 0.666623 0.694364 0.516599
107 2 0.91357 0.677579 0.977059
108 2 0.837918 0.570185 0.479256
109 2 0.664229 0.553493 0.299454
110 2 0.583576 0.680407 0.807262
111 2 0.835475 0.683411 0.694396
112 2 0.905853 0.56206 0.198826
113 2 0.498727 0.558128 0.600557
114 2 0.743934 0.68098 0.0939278
115 2 0.996188 0.69568 0.403244
116 2 0.750102 0.557012 0.903896
117 2 0.585112 0.809831 0.0232767
118 2 0.668341 0.944158 0.530676
119 2 0.929269 0.94026 0.978452
120 2 0.836279 0.824549 0.463229
121 2 0.65476 0.818601 0.293952
122 2 0.594844 0.937518 0.807164
123 2 0.838383 0.93692 0.700221
124 2 0.906696 0.802429 0.197775
125 2 0.49967 0.809815 0.588684
126 2 0.754477 0.931313 0.097402
127 2 0.997227 0.948521 0.401047
128 2 0.751031 0.813824 0.90451
129 3 0.0966687 0.0660703 0.460388
130 3 0.162393 0.18686 0.957806
131 3 0.405609 0.195326 0.546697
132 3 0.341484 0.0592411 0.0506875
133 3 0.088095 0.319047 0.463729
134 3 0.158534 0.433944 0.950113
135 3 0.408227 0.438949 0.537649
136 3 0.345292 0.3121 0.0477706
137 3 0.0911129 0.573342 0.458299
138 3 0.150987 0.686651 0.959477
139 3 0.399564 0.679153 0.537964
140 3 0.346394 0.562343 0.0442958
141 3 0.0878632 0.812664 0.459517
142 3 0.15612 0.935264 0.964016
143 3 0.40044 0.928181 0.545227
144 3 0.349379 0.810287 0.0380047
145 3 0.5967 0.0660303 0.464619
146 3 0.659649 0.181791 0.958864
147 3 0.903285 0.191067 0.549002
148 3 0.860198 0.0672832 0.0403477
149 3 0.598841 0.309469 0.455182
150 3 0.655823 0.441325 0.964552
151 3 0.899665 0.440975 0.541836
152 3 0.85016 0.31174 0.0402108
153 3 0.595003 0.565254 0.448221
154 3 0.654646 0.685107 0.963789
155 3 0.90527 0.691283 0.542602
156 3 0.845635 0.555741 0.0413791
157 3 0.594138 0.807671 0.458256
158 3 0.652392 0.935728 0.960791
159 3 0.896305 0.945466 0.534166
160 3 0.840027 0.817529 0.0425041
ITEM: TIMESTEP
1500
ITEM: NUMBER OF ATOMS
160
ITEM: BOX BOUNDS xy xz yz pp pp pp
6.3187782271582771e-01 2.0236522177284172e+01 0.0000000000000000e+00
2.3913011992998523e-01 1.8922869880070014e+01 0.0000000000000000e+00
7.1044000000000007e-01 1.7050559999999994e+01 0.0000000000000000e+00
ITEM: ATOMS id type xs ys zs
1 1 0.189457 0.0646911 0.679399
2 1 0.0332663 0.188532 0.186242
3 1 0.299493 0.192441 0.321893
4 1 0.448943 0.0556923 0.825892
5 1 0.203741 0.311231 0.686365
6 1 0.0355993 0.443931 0.178212
7 1 0.292301 0.436257 0.32801
8 1 0.468292 0.315758 0.826291
9 1 0.19779 0.567686 0.670141
10 1 0.0382116 0.693108 0.180056
11 1 0.285021 0.695766 0.322877
12 1 0.455023 0.557748 0.799715
13 1 0.207111 0.808371 0.672495
14 1 0.0371007 0.934508 0.178771
15 1 0.29365 0.941777 0.322439
16 1 0.457076 0.81006 0.808827
17 1 0.71606 0.0738954 0.671871
18 1 0.547158 0.182728 0.171963
19 1 0.801494 0.186251 0.323789
20 1 0.954473 0.0529115 0.821548
21 1 0.71524 0.314447 0.661804
22 1 0.556326 0.429178 0.178315
23 1 0.794388 0.430828 0.335775
24 1 0.958873 0.305671 0.833688
25 1 0.719898 0.561611 0.668357
26 1 0.542471 0.694247 0.18666
27 1 0.795135 0.686027 0.31928
28 1 0.960691 0.555645 0.834992
29 1 0.710196 0.800714 0.673956
30 1 0.542925 0.937543 0.167889
31 1 0.787344 0.942551 0.312505
32 1 0.950434 0.820973 0.811834
33 2 0.0741739 0.0671565 0.000655995
34 2 0.156574 0.194706 0.512786
35 2 0.416006 0.18718 0.997509
36 2 0.334621 0.0522073 0.491111
37 2 0.151537 0.064267 0.302587
38 2 0.103076 0.19477 0.794992
39 2 0.355472 0.178945 0.707978
40 2 0.402481 0.0615993 0.202588
41 2 0.0077595 0.0656826 0.595774
42 2 0.241452 0.19306 0.0963099
43 2 0.495081 0.192764 0.414953
44 2 0.25254 0.0629053 0.916301
45 2 0.0856435 0.305691 0.00838731
46 2 0.171135 0.431991 0.511014
47 2 0.416409 0.449285 0.995736
48 2 0.336715 0.302534 0.495706
49 2 0.163666 0.314301 0.283536
50 2 0.0916195 0.443127 0.805562
51 2 0.346893 0.437468 0.692469
52 2 0.411635 0.318751 0.204216
53 2 0.00236124 0.31519 0.602291
54 2 0.236908 0.444307 0.0919485
55 2 0.498364 0.423917 0.403893
56 2 0.262105 0.324482 0.90978
57 2 0.0886629 0.56367 0.00964001
58 2 0.165464 0.6951 0.502411
59 2 0.414773 0.69441 0.991546
60 2 0.341677 0.561663 0.487288
61 2 0.150379 0.553805 0.304589
62 2 0.0929006 0.684748 0.790119
63 2 0.341849 0.688675 0.694158
64 2 0.399004 0.569786 0.198865
65 2 0.0128292 0.562075 0.589456
66 2 0.24119 0.6818 0.0945094
67 2 0.494023 0.679403 0.397775
68 2 0.255273 0.564653 0.89203
69 2 0.0724852 0.809392 0.00173495
70 2 0.160831 0.937693 0.502259
71 2 0.411813 0.939576 0.992613
72 2 0.346036 0.815242 0.486253
73 2 0.148096 0.805072 0.291374
74 2 0.106853 0.939835 0.806571
75 2 0.345408 0.931832 0.706253
76 2 0.395341 0.811207 0.201952
77 2 0.00875394 0.819275 0.587247
78 2 0.236566 0.940946 0.0970783
79 2 0.490859 0.936438 0.396493
80 2 0.257364 0.81603 0.911192
81 2 0.590586 0.0681683 0.00522143
82 2 0.666711 0.191394 0.508022
83 2 0.9048 0.180743 0.991907
84 2 0.834799 0.0627732 0.486886
85 2 0.640246 0.0637683 0.294714
86 2 0.599193 0.173618 0.802552
87 2 0.854447 0.183458 0.708808
88 2 0.895421 0.0632437 0.211414
89 2 0.499729 0.0525632 0.590739
90 2 0.74258 0.187838 0.109382
91 2 0.995113 0.185612 0.400138
92 2 0.757885 0.0592484 0.909015
93 2 0.584272 0.308851 0.0186629
94 2 0.664108 0.447729 0.513244
95 2 0.911649 0.443732 0.000741308
96 2 0.834401 0.313096 0.500461
97 2 0.659369 0.310121 0.312556
98 2 0.598674 0.442301 0.802483
99 2 0.85571 0.429203 0.704457
100 2 0.894342 0.316092 0.214638
101 2 0.507225 0.314882 0.603779
102 2 0.740885 0.439502 0.101017
103 2 0.00154374 0.421902 0.401978
104 2 0.752226 0.310829 0.921584
105 2 0.583696 0.556306 0.00424811
106 2 0.665677 0.69284 0.500172
107 2 0.912712 0.679667 0.00234423
108 2 0.847665 0.560889 0.487553
109 2 0.652638 0.569421 0.283922
110 2 0.600015 0.688822 0.790127
111 2 0.856405 0.686038 0.70443
112 2 0.894571 0.553132 0.221977
113 2 0.508321 0.566351 0.602454
114 2 0.746819 0.690103 0.0958447
115 2 0.996049 0.686219 0.405916
116 2 0.760417 0.560784 0.902282
117 2 0.593341 0.818357 0.00053626
118 2 0.658523 0.943605 0.501612
119 2 0.913106 0.923796 0.990923
120 2 0.844685 0.80943 0.492067
121 2 0.657765 0.815253 0.290399
122 2 0.588944 0.931586 0.794751
123 2 0.848166 0.944945 0.696619
124 2 0.88715 0.816231 0.202637
125 2 0.504757 0.805914 0.592976
126 2 0.742231 0.94648 0.0937358
127 2 0.992087 0.94016 0.40074
128 2 0.760048 0.80835 0.902041
129 3 0.0889311 0.0682094 0.448314
130 3 0.158117 0.187508 0.95021
131 3 0.410229 0.171398 0.561033
132 3 0.341297 0.0648332 0.06118
133 3 0.0972246 0.314131 0.43776
134 3 0.165776 0.439865 0.943982
135 3 0.404652 0.42955 0.53628
136 3 0.34201 0.318226 0.0568326
137 3 0.0930722 0.564419 0.451177
138 3 0.158094 0.685681 0.939989
139 3 0.417002 0.68569 0.545974
140 3 0.336679 0.571233 0.0488804
141 3 0.0889006 0.8138 0.43998
142 3 0.159687 0.942651 0.956786
143 3 0.405384 0.930063 0.558685
144 3 0.339197 0.81803 0.0545273
145 3 0.577151 0.0605403 0.43951
146 3 0.661565 0.183609 0.946476
147 3 0.924432 0.200746 0.565007
148 3 0.83464 0.0625718 0.0551176
149 3 0.583542 0.306494 0.451412
150 3 0.661277 0.434566 0.951278
151 3 0.919895 0.441418 0.557697
152 3 0.831258 0.306449 0.0679212
153 3 0.59085 0.563125 0.430365
154 3 0.659946 0.685428 0.939259
155 3 0.921328 0.687157 0.557373
156 3 0.830252 0.558308 0.06631
157 3 0.593268 0.816337 0.443861
158 3 0.665802 0.945111 0.938342
159 3 0.90927 0.939795 0.545113
160 3 0.835911 0.811508 0.0494863
ITEM: TIMESTEP
2000
ITEM: NUMBER OF ATOMS
160
ITEM: BOX BOUNDS xy xz yz pp pp pp
6.3187782271582771e-01 2.0236522177284172e+01 0.0000000000000000e+00
2.3913011992998523e-01 1.8922869880070014e+01 0.0000000000000000e+00
7.1044000000000007e-01 1.7050559999999994e+01 0.0000000000000000e+00
ITEM: ATOMS id type xs ys zs
1 1 0.210689 0.0761225 0.687466
2 1 0.0508466 0.191262 0.189682
3 1 0.302739 0.20384 0.316832
4 1 0.437355 0.0651811 0.800844
5 1 0.189973 0.302541 0.6774
6 1 0.0508185 0.449989 0.192203
7 1 0.312998 0.4492 0.305433
8 1 0.437904 0.325499 0.804819
9 1 0.198381 0.545196 0.676475
10 1 0.0523305 0.680656 0.196329
11 1 0.310976 0.684863 0.323316
12 1 0.450717 0.572609 0.819166
13 1 0.197966 0.808899 0.694701
14 1 0.0605438 0.94412 0.192584
15 1 0.309557 0.938109 0.298699
16 1 0.447799 0.810779 0.798656
17 1 0.675332 0.0588887 0.701111
18 1 0.546246 0.174845 0.190975
19 1 0.809052 0.190154 0.304654
20 1 0.947371 0.0574679 0.811444
21 1 0.69273 0.313172 0.698579
22 1 0.552764 0.43562 0.185776
23 1 0.798255 0.430845 0.317543
24 1 0.934735 0.297624 0.820193
25 1 0.6898 0.564322 0.68904
26 1 0.554814 0.68818 0.196068
27 1 0.807938 0.686342 0.295626
28 1 0.936792 0.554516 0.792712
29 1 0.686449 0.809243 0.701727
30 1 0.557295 0.936062 0.19341
31 1 0.817706 0.933073 0.291744
32 1 0.948839 0.80684 0.81239
33 2 0.0873895 0.064756 0.0271008
34 2 0.168418 0.18693 0.50669
35 2 0.414909 0.190341 0.985021
36 2 0.336842 0.0655121 0.479761
37 2 0.165863 0.0633613 0.303753
38 2 0.0919536 0.187302 0.812504
39 2 0.338707 0.200628 0.695044
40 2 0.412811 0.0647483 0.208953
41 2 0.003101 0.0646833 0.591884
42 2 0.253349 0.193065 0.0972459
43 2 0.49862 0.177116 0.398656
44 2 0.250003 0.0609186 0.903559
45 2 0.0863791 0.324204 0.0180251
46 2 0.156741 0.428071 0.516763
47 2 0.413445 0.451457 0.97171
48 2 0.344667 0.318155 0.486238
49 2 0.157758 0.311535 0.310516
50 2 0.0833385 0.439089 0.802719
51 2 0.339723 0.438557 0.694462
52 2 0.406726 0.316734 0.193828
53 2 0.993264 0.298499 0.60211
54 2 0.250304 0.451959 0.098595
55 2 0.498923 0.443072 0.402232
56 2 0.255749 0.315549 0.902562
57 2 0.0901077 0.55969 0.0139313
58 2 0.172971 0.69676 0.529908
59 2 0.410419 0.692518 0.97976
60 2 0.339517 0.552231 0.469339
61 2 0.157044 0.552451 0.308075
62 2 0.0842441 0.679509 0.811231
63 2 0.347091 0.691377 0.703467
64 2 0.408592 0.568833 0.193773
65 2 0.00373117 0.553051 0.597563
66 2 0.24133 0.689214 0.106501
67 2 0.501271 0.682165 0.396536
68 2 0.253026 0.55927 0.893281
69 2 0.0801031 0.825897 0.0160624
70 2 0.160287 0.948194 0.509084
71 2 0.414814 0.937246 0.973332
72 2 0.342929 0.818986 0.477343
73 2 0.152179 0.807639 0.296262
74 2 0.0960266 0.930979 0.796615
75 2 0.337897 0.949823 0.697164
76 2 0.41636 0.815997 0.198796
77 2 0.997718 0.80533 0.591728
78 2 0.254313 0.927444 0.0954361
79 2 0.494855 0.949051 0.410296
80 2 0.248511 0.802293 0.90237
81 2 0.584101 0.0600878 0.0265047
82 2 0.654848 0.196855 0.538708
83 2 0.921381 0.186681 0.984068
84 2 0.843077 0.0609739 0.464236
85 2 0.664844 0.0577687 0.309206
86 2 0.580877 0.182608 0.827258
87 2 0.838733 0.181622 0.697602
88 2 0.90895 0.0670249 0.185964
89 2 0.500617 0.0695957 0.609226
90 2 0.745355 0.17827 0.0945378
91 2 0.997792 0.190931 0.396908
92 2 0.75157 0.0512848 0.900941
93 2 0.590462 0.310898 0.0296353
94 2 0.664211 0.441967 0.526404
95 2 0.910094 0.441884 0.966529
96 2 0.83129 0.31525 0.480042
97 2 0.662474 0.319758 0.311059
98 2 0.582134 0.429899 0.8174
99 2 0.832175 0.432655 0.68903
100 2 0.909918 0.309156 0.195794
101 2 0.51189 0.321486 0.606349
102 2 0.755743 0.430905 0.0998406
103 2 0.993765 0.435972 0.396438
104 2 0.75545 0.304992 0.906084
105 2 0.590612 0.555903 0.0203049
106 2 0.662055 0.696686 0.524764
107 2 0.913258 0.680441 0.985097
108 2 0.83711 0.556678 0.477413
109 2 0.668249 0.574157 0.303434
110 2 0.585599 0.687115 0.801872
111 2 0.847905 0.677654 0.684908
112 2 0.908936 0.570264 0.191688
113 2 0.505405 0.561551 0.601181
114 2 0.748464 0.684389 0.101434
115 2 0.00364386 0.694068 0.410348
116 2 0.757178 0.572967 0.900068
117 2 0.588748 0.809515 0.0179478
118 2 0.663635 0.940814 0.542914
119 2 0.912361 0.932859 0.97434
120 2 0.82941 0.81854 0.477163
121 2 0.663195 0.827287 0.309599
122 2 0.582423 0.924443 0.801445
123 2 0.845865 0.928663 0.708706
124 2 0.913316 0.80521 0.190615
125 2 0.502953 0.803383 0.593729
126 2 0.743604 0.932112 0.0987661
127 2 0.992217 0.938286 0.406598
128 2 0.757675 0.803302 0.900158
129 3 0.0835179 0.065457 0.44632
130 3 0.151868 0.188307 0.9654
131 3 0.401087 0.183189 0.545607
132 3 0.349241 0.0672485 0.0499903
133 3 0.0925037 0.314423 0.45237
134 3 0.154547 0.439841 0.944709
135 3 0.407229 0.434957 0.548274
136 3 0.34532 0.320804 0.0473944
137 3 0.09937 0.57286 0.463687
138 3 0.156623 0.686839 0.956355
139 3 0.413006 0.682577 0.547623
140 3 0.340866 0.565748 0.043757
141 3 0.096332 0.813302 0.456836
142 3 0.155039 0.939729 0.955351
143 3 0.406351 0.941214 0.538262
144 3 0.345697 0.818195 0.0496517
145 3 0.590287 0.0642829 0.461455
146 3 0.654333 0.184223 0.96532
147 3 0.906908 0.187053 0.5427
148 3 0.840212 0.0595214 0.0418854
149 3 0.597674 0.318978 0.465224
150 3 0.658895 0.434371 0.953842
151 3 0.910956 0.431989 0.541358
152 3 0.854925 0.31227 0.0480083
153 3 0.588991 0.561413 0.439379
154 3 0.654489 0.685339 0.947352
155 3 0.897531 0.689957 0.524748
156 3 0.84037 0.554458 0.0456613
157 3 0.594063 0.817755 0.456635
158 3 0.657012 0.929388 0.946384
159 3 0.902814 0.933722 0.542698
160 3 0.847874 0.805311 0.0417903
ITEM: TIMESTEP
2500
ITEM: NUMBER OF ATOMS
160
ITEM: BOX BOUNDS xy xz yz pp pp pp
6.3187782271582771e-01 2.0236522177284172e+01 0.0000000000000000e+00
2.3913011992998523e-01 1.8922869880070014e+01 0.0000000000000000e+00
7.1044000000000007e-01 1.7050559999999994e+01 0.0000000000000000e+00
ITEM: ATOMS id type xs ys zs
1 1 0.203093 0.0559917 0.715434
2 1 0.0383166 0.19082 0.197571
3 1 0.30844 0.17978 0.311084
4 1 0.44404 0.0674363 0.79527
5 1 0.196109 0.298849 0.689197
6 1 0.0586843 0.435713 0.191334
7 1 0.31502 0.440275 0.318765
8 1 0.455045 0.30427 0.797734
9 1 0.187447 0.552718 0.695555
10 1 0.051501 0.698394 0.195779
11 1 0.308629 0.681795 0.296111
12 1 0.435409 0.556647 0.799653
13 1 0.189192 0.809623 0.69981
14 1 0.0531399 0.935908 0.198452
15 1 0.288146 0.936022 0.306569
16 1 0.448504 0.807809 0.809597
17 1 0.684476 0.0622286 0.686876
18 1 0.557324 0.193151 0.175131
19 1 0.815655 0.179776 0.314608
20 1 0.94301 0.0667189 0.8142
21 1 0.69631 0.310908 0.689669
22 1 0.552513 0.43916 0.18883
23 1 0.813762 0.446912 0.309143
24 1 0.94491 0.314585 0.801938
25 1 0.688631 0.562107 0.691019
26 1 0.559975 0.687215 0.193192
27 1 0.798051 0.684607 0.301378
28 1 0.934252 0.569847 0.825194
29 1 0.692267 0.813739 0.696923
30 1 0.55107 0.926463 0.188049
31 1 0.821031 0.938389 0.306431
32 1 0.94366 0.820822 0.814779
33 2 0.0874223 0.071311 0.0341899
34 2 0.163901 0.17919 0.529641
35 2 0.423441 0.190754 0.976847
36 2 0.345675 0.0533612 0.474036
37 2 0.159091 0.0583277 0.299618
38 2 0.0896312 0.177589 0.808997
39 2 0.344219 0.201153 0.687916
40 2 0.417027 0.0682913 0.191347
41 2 0.00273007 0.0731985 0.59807
42 2 0.258481 0.192259 0.0994238
43 2 0.496873 0.186933 0.394361
44 2 0.253108 0.0613363 0.918172
45 2 0.0923197 0.316966 0.0290664
46 2 0.158623 0.441264 0.528739
47 2 0.415236 0.427315 0.967776
48 2 0.336738 0.30922 0.469041
49 2 0.151282 0.319202 0.311817
50 2 0.0989929 0.424617 0.804374
51 2 0.341437 0.426808 0.694696
52 2 0.413773 0.324132 0.201246
53 2 0.998977 0.3104 0.606905
54 2 0.250005 0.442198 0.0917243
55 2 0.496712 0.440108 0.392801
56 2 0.247818 0.316371 0.898375
57 2 0.0812939 0.5574 0.0108956
58 2 0.161356 0.681899 0.53902
59 2 0.416571 0.679268 0.960317
60 2 0.338115 0.561781 0.490683
61 2 0.164171 0.562055 0.316122
62 2 0.0846744 0.689948 0.804026
63 2 0.357883 0.68938 0.689007
64 2 0.414558 0.565506 0.19561
65 2 0.998754 0.556193 0.602858
66 2 0.246446 0.67872 0.0928597
67 2 0.500361 0.680399 0.401735
68 2 0.252008 0.564231 0.893228
69 2 0.0919664 0.810442 0.0256782
70 2 0.168532 0.940542 0.523585
71 2 0.415693 0.947382 0.9742
72 2 0.333159 0.810039 0.478439
73 2 0.151171 0.801547 0.318143
74 2 0.0929277 0.941465 0.815278
75 2 0.34447 0.936937 0.692577
76 2 0.402699 0.814323 0.189715
77 2 0.00481694 0.827323 0.604205
78 2 0.236984 0.938683 0.108226