ITEM: TIMESTEP
0
ITEM: NUMBER OF ATOMS
160
ITEM: BOX BOUNDS xy xz yz pp pp pp
6.7739828245970668e-01 1.7034601717540291e+01 0.0000000000000000e+00
4.9302530764975266e-01 1.6658974692350245e+01 0.0000000000000000e+00
9.3613503818621524e-01 2.4007864961813787e+01 0.0000000000000000e+00
ITEM: ATOMS id type xs ys zs
1 1 0.255321 0.253178 0.120675
2 1 0.252639 0.247599 0.397509
3 1 0.0208602 0.00147633 0.383197
4 1 0.509445 0.504291 0.136417
5 1 0.265005 0.275015 0.625488
6 1 0.253506 0.222176 0.852855
7 1 0.961225 0.977532 0.876053
8 1 0.509847 0.488736 0.646047
9 1 0.248514 0.745602 0.120978
10 1 0.271741 0.738979 0.371203
11 1 0.996515 0.492772 0.35893
12 1 0.497861 0.996198 0.119558
13 1 0.278945 0.754519 0.626903
14 1 0.273639 0.723074 0.87993
15 1 0.986278 0.492361 0.859572
16 1 0.488127 0.000746383 0.614324
17 1 0.745371 0.24073 0.121985
18 1 0.763642 0.260343 0.367109
19 1 0.490311 0.996242 0.370673
20 1 0.982635 0.498155 0.133349
21 1 0.76117 0.236033 0.615196
22 1 0.7346 0.248628 0.876138
23 1 0.495233 0.00981207 0.877698
24 1 0.995925 0.502868 0.62416
25 1 0.757967 0.76227 0.127149
26 1 0.745157 0.735138 0.373994
27 1 0.486231 0.508455 0.383388
28 1 0.0175047 0.0108095 0.125244
29 1 0.762504 0.762485 0.626245
30 1 0.738577 0.758897 0.869763
31 1 0.480594 0.477311 0.877328
32 1 7.1509e-05 0.0078936 0.637636
33 2 0.981249 0.226419 0.129303
34 2 0.517312 0.235219 0.379993
35 2 0.253471 0.012289 0.373309
36 2 0.272963 0.502182 0.123473
37 2 0.131108 0.370867 0.511139
38 2 0.387076 0.11084 0.0126126
39 2 0.128149 0.140426 0.00185353
40 2 0.371691 0.378711 0.485073
41 2 0.399537 0.120509 0.246185
42 2 0.112536 0.377007 0.237774
43 2 0.364969 0.365656 0.259514
44 2 0.14691 0.143515 0.246878
45 2 0.990593 0.23845 0.626188
46 2 0.493007 0.220795 0.873255
47 2 0.266882 0.00881446 0.873756
48 2 0.274431 0.509259 0.629559
49 2 0.0993938 0.386734 0.0165259
50 2 0.366886 0.13247 0.514367
51 2 0.126322 0.122914 0.501184
52 2 0.355009 0.346326 0.993777
53 2 0.38237 0.109606 0.736844
54 2 0.107992 0.391086 0.744456
55 2 0.365669 0.361218 0.76517
56 2 0.147848 0.147709 0.737202
57 2 0.996749 0.7819 0.126388
58 2 0.514473 0.760652 0.379717
59 2 0.242303 0.513793 0.372893
60 2 0.25537 0.991647 0.121206
61 2 0.128473 0.863991 0.478129
62 2 0.39028 0.612692 0.978273
63 2 0.151301 0.648528 0.00422552
64 2 0.374181 0.884697 0.499072
65 2 0.388668 0.614719 0.2516
66 2 0.113037 0.883073 0.25969
67 2 0.374515 0.869725 0.251805
68 2 0.133761 0.629499 0.232281
69 2 0.0089595 0.786748 0.627635
70 2 0.506497 0.779342 0.872132
71 2 0.218502 0.495242 0.877826
72 2 0.230404 0.97183 0.627717
73 2 0.107156 0.892518 0.984396
74 2 0.362977 0.638782 0.489421
75 2 0.11046 0.620514 0.511699
76 2 0.360765 0.858657 0.995823
77 2 0.400216 0.616813 0.763219
78 2 0.104643 0.89143 0.77412
79 2 0.371789 0.862028 0.74628
80 2 0.147507 0.6502 0.753829
81 2 0.506826 0.277274 0.127994
82 2 0.00866309 0.255896 0.379493
83 2 0.712583 0.992499 0.379013
84 2 0.732114 0.4909 0.121101
85 2 0.644426 0.348497 0.486424
86 2 0.884219 0.0962774 0.986641
87 2 0.640209 0.146681 0.0040918
88 2 0.885413 0.385839 0.514051
89 2 0.891164 0.105286 0.277633
90 2 0.607261 0.399672 0.273706
91 2 0.858427 0.360402 0.247721
92 2 0.6451 0.15807 0.241785
93 2 0.510674 0.280243 0.62205
94 2 0.00677406 0.267264 0.867108
95 2 0.72162 0.00066281 0.867146
96 2 0.739472 0.477268 0.632847
97 2 0.601489 0.390491 0.985023
98 2 0.858936 0.137299 0.495528
99 2 0.609821 0.109576 0.520443
100 2 0.85365 0.362559 0.00376102
101 2 0.891675 0.105915 0.76645
102 2 0.608913 0.378944 0.772208
103 2 0.855949 0.360895 0.75313
104 2 0.624865 0.13664 0.741832
105 2 0.484701 0.7405 0.116357
106 2 0.985146 0.71452 0.37626
107 2 0.769079 0.508843 0.375579
108 2 0.781881 0.00408631 0.128012
109 2 0.630284 0.867577 0.519541
110 2 0.888773 0.610018 0.0168182
111 2 0.644482 0.64928 0.993848
112 2 0.884989 0.883203 0.486912
113 2 0.889363 0.61012 0.235656
114 2 0.617248 0.897005 0.230308
115 2 0.85395 0.863132 0.26683
116 2 0.64403 0.643301 0.246076
117 2 0.492687 0.733064 0.625331
118 2 0.989916 0.714627 0.877193
119 2 0.757057 0.51451 0.876066
120 2 0.778208 0.00570369 0.630548
121 2 0.618175 0.900306 0.0155682
122 2 0.862331 0.635519 0.521005
123 2 0.606581 0.59982 0.498375
124 2 0.859733 0.848648 0.987008
125 2 0.883907 0.610819 0.733074
126 2 0.612636 0.892562 0.732226
127 2 0.857089 0.85681 0.755912
128 2 0.647344 0.642472 0.750948
129 3 0.997726 0.251966 0.997727
130 3 0.248262 0.998393 0.995252
131 3 0.998782 0.238455 0.252611
132 3 0.252469 0.000982487 0.243853
133 3 0.995979 0.249541 0.495713
134 3 0.245751 0.99637 0.506924
135 3 0.99355 0.254183 0.744499
136 3 0.246364 0.986292 0.748953
137 3 0.00712093 0.744516 0.997476
138 3 0.241793 0.496534 0.00620207
139 3 0.999413 0.74736 0.253145
140 3 0.255418 0.502794 0.249394
141 3 0.999376 0.757023 0.499225
142 3 0.244954 0.507827 0.49484
143 3 0.0108823 0.752233 0.749472
144 3 0.251478 0.499166 0.753383
145 3 0.4956 0.249585 0.996832
146 3 0.747211 0.00350312 0.991817
147 3 0.507135 0.262195 0.251101
148 3 0.75203 0.998624 0.249686
149 3 0.502173 0.2553 0.50081
150 3 0.743643 0.00158214 0.499508
151 3 0.495578 0.243454 0.749683
152 3 0.747702 0.00753422 0.748276
153 3 0.505205 0.750279 0.994685
154 3 0.745651 0.511272 0.996013
155 3 0.509372 0.748318 0.240425
156 3 0.750473 0.500949 0.244032
157 3 0.499555 0.746 0.501303
158 3 0.751237 0.501916 0.507461
159 3 0.510584 0.75047 0.747369
160 3 0.744784 0.499944 0.756321
ITEM: TIMESTEP
500
ITEM: NUMBER OF ATOMS
160
ITEM: BOX BOUNDS xy xz yz pp pp pp
5.5855669973893440e-01 1.7372002320465040e+01 5.6270849400577444e-02
1.2376518062306299e-01 1.6931523704232770e+01 1.6228817080337987e-01
7.4132974111524719e-01 2.4202670258884723e+01 -9.6711115144175658e-02
ITEM: ATOMS id type xs ys zs
1 1 0.260764 0.243944 0.121858
2 1 0.245675 0.265042 0.387495
3 1 0.00933985 0.00635555 0.392958
4 1 0.530048 0.472538 0.130943
5 1 0.239143 0.265122 0.634366
6 1 0.255468 0.238501 0.866943
7 1 0.000101077 0.992633 0.882541
8 1 0.498213 0.493859 0.62462
9 1 0.238116 0.731435 0.125712
10 1 0.250814 0.739311 0.368427
11 1 0.997699 0.499404 0.381031
12 1 0.483779 0.996561 0.103188
13 1 0.257648 0.737341 0.642219
14 1 0.258355 0.728934 0.881248
15 1 0.00209616 0.489688 0.880222
16 1 0.482657 0.98888 0.61356
17 1 0.764757 0.268028 0.108788
18 1 0.764976 0.269306 0.377754
19 1 0.486668 0.0222396 0.355398
20 1 0.00739335 0.509011 0.124133
21 1 0.76225 0.236431 0.63097
22 1 0.77043 0.24551 0.880453
23 1 0.498114 0.0234504 0.846614
24 1 0.0142106 0.494914 0.638804
25 1 0.737199 0.756662 0.122606
26 1 0.749839 0.74489 0.38124
27 1 0.486069 0.508162 0.377157
28 1 0.00892057 0.992399 0.125464
29 1 0.743483 0.778432 0.623812
30 1 0.773352 0.772704 0.853228
31 1 0.517262 0.5129 0.886544
32 1 0.00199047 0.980013 0.62786
33 2 0.97306 0.259346 0.120931
34 2 0.497008 0.251193 0.370601
35 2 0.210733 0.0268498 0.368186
36 2 0.272248 0.509094 0.124705
37 2 0.139824 0.357248 0.516923
38 2 0.377262 0.124643 0.996902
39 2 0.11321 0.114251 0.00704934
40 2 0.380285 0.388937 0.502019
41 2 0.35795 0.134153 0.257202
42 2 0.126863 0.366641 0.234849
43 2 0.375045 0.381614 0.257268
44 2 0.117423 0.120512 0.215945
45 2 0.986493 0.258749 0.629456
46 2 0.488918 0.239122 0.868625
47 2 0.241513 0.0263436 0.870744
48 2 0.255831 0.500215 0.630517
49 2 0.131487 0.378438 0.0113276
50 2 0.350564 0.125106 0.496038
51 2 0.1043 0.106409 0.515894
52 2 0.371864 0.371034 0.00253353
53 2 0.387008 0.113294 0.734922
54 2 0.113346 0.379376 0.748319
55 2 0.360701 0.353618 0.753885
56 2 0.122967 0.136902 0.74052
57 2 0.990389 0.760353 0.120972
58 2 0.518231 0.732186 0.37683
59 2 0.23226 0.486966 0.37721
60 2 0.273454 0.989431 0.113876
61 2 0.12742 0.863851 0.491642
62 2 0.379847 0.630571 0.980716
63 2 0.138339 0.630056 0.0146979
64 2 0.387991 0.87729 0.464923
65 2 0.362785 0.624695 0.263634
66 2 0.114893 0.87171 0.245745
67 2 0.354463 0.869212 0.254437
68 2 0.112661 0.61489 0.243077
69 2 0.00307536 0.758103 0.621003
70 2 0.530001 0.738039 0.872859
71 2 0.247757 0.487139 0.882372
72 2 0.2628 0.967742 0.618074
73 2 0.133123 0.864183 0.985801
74 2 0.356898 0.63057 0.489163
75 2 0.110067 0.610061 0.516748
76 2 0.396641 0.885252 0.976678
77 2 0.380315 0.614938 0.752139
78 2 0.131988 0.879436 0.75496
79 2 0.368076 0.864094 0.76637
80 2 0.132255 0.619058 0.750241
81 2 0.489961 0.247201 0.121098
82 2 0.0220437 0.250935 0.374894
83 2 0.746987 0.992375 0.37472
84 2 0.760088 0.488501 0.122298
85 2 0.619799 0.379106 0.497847
86 2 0.866079 0.126765 0.991358
87 2 0.621803 0.110635 0.00544519
88 2 0.870437 0.376434 0.494575
89 2 0.877618 0.135976 0.256998
90 2 0.632458 0.381995 0.250559
91 2 0.881085 0.383597 0.270751
92 2 0.614211 0.129567 0.249489
93 2 0.490009 0.267305 0.62149
94 2 0.00984891 0.258834 0.881539
95 2 0.732637 0.995063 0.872396
96 2 0.767312 0.486634 0.633735
97 2 0.616497 0.372274 0.997484
98 2 0.867514 0.139614 0.495088
99 2 0.602986 0.121023 0.501093
100 2 0.866426 0.368575 0.992605
101 2 0.883217 0.130386 0.766222
102 2 0.626554 0.378339 0.75356
103 2 0.876598 0.375069 0.766205
104 2 0.637328 0.137981 0.733269
105 2 0.483384 0.756834 0.132941
106 2 0.992194 0.731706 0.377965
107 2 0.745638 0.511961 0.381351
108 2 0.754489 0.988255 0.129496
109 2 0.634058 0.866983 0.50284
110 2 0.898807 0.615006 0.00215554
111 2 0.632438 0.620155 0.00933929
112 2 0.880366 0.881228 0.505672
113 2 0.86151 0.62959 0.247243
114 2 0.615933 0.882094 0.251395
115 2 0.870747 0.870705 0.259431
116 2 0.621382 0.620354 0.240804
117 2 0.495542 0.769895 0.623395
118 2 0.00383192 0.749991 0.872535
119 2 0.750765 0.520862 0.875798
120 2 0.768838 0.0245515 0.622355
121 2 0.630588 0.860837 0.00327595
122 2 0.859174 0.642633 0.513612
123 2 0.609517 0.613535 0.518864
124 2 0.882397 0.882177 0.996604
125 2 0.896072 0.621727 0.748846
126 2 0.629583 0.887938 0.741432
127 2 0.878404 0.886265 0.743658
128 2 0.626953 0.646922 0.739914
129 3 0.00865701 0.256228 0.999356
130 3 0.255588 0.999574 0.99091
131 3 0.00211786 0.249879 0.248934
132 3 0.22969 0.00197239 0.247624
133 3 0.0046968 0.245193 0.508971
134 3 0.238623 0.99433 0.498204
135 3 0.00330252 0.260057 0.762775
136 3 0.251379 0.00499615 0.746619
137 3 0.000778215 0.748094 0.00244554
138 3 0.246973 0.494036 0.00183335
139 3 0.991799 0.743211 0.252949
140 3 0.253992 0.497202 0.242527
141 3 0.995104 0.743625 0.500582
142 3 0.248196 0.500301 0.504255
143 3 0.0126578 0.752483 0.750396
144 3 0.25453 0.493663 0.765545
145 3 0.491571 0.241231 0.995309
146 3 0.751956 0.996246 0.998231
147 3 0.493918 0.245582 0.252039
148 3 0.747178 0.00503204 0.249648
149 3 0.493628 0.258415 0.498789
150 3 0.75274 0.00187664 0.500845
151 3 0.515027 0.245665 0.744026
152 3 0.751681 0.00669766 0.74407
153 3 0.506633 0.747279 0.992812
154 3 0.741715 0.494173 0.00270105
155 3 0.495829 0.746716 0.250978
156 3 0.753079 0.496566 0.253391
157 3 0.498058 0.752015 0.497806
158 3 0.744483 0.499988 0.509171
159 3 0.502354 0.756455 0.749724
160 3 0.758867 0.51244 0.753169
ITEM: TIMESTEP
1000
ITEM: NUMBER OF ATOMS
160
ITEM: BOX BOUNDS xy xz yz pp pp pp
4.9576314343155792e-01 1.7131270559964236e+01 -6.5355844862451259e-02
3.0850699982477031e-01 1.6847146909192194e+01 -1.9610451741750606e-02
7.0991082971402608e-01 2.4234089170285955e+01 3.6539090169634661e-03
ITEM: ATOMS id type xs ys zs
1 1 0.271355 0.250999 0.134776
2 1 0.262122 0.254047 0.387415
3 1 0.00110434 0.00268621 0.394755
4 1 0.511868 0.477844 0.137062
5 1 0.251578 0.239173 0.623452
6 1 0.237468 0.259967 0.864488
7 1 0.990299 0.0104772 0.899204
8 1 0.509273 0.483442 0.617686
9 1 0.266495 0.769694 0.122301
10 1 0.255993 0.759126 0.361256
11 1 0.986865 0.498712 0.385094
12 1 0.48522 0.00530723 0.122993
13 1 0.270268 0.746513 0.640127
14 1 0.226599 0.735653 0.866107
15 1 0.983782 0.489476 0.874214
16 1 0.517603 0.00694153 0.614945
17 1 0.747159 0.242768 0.129223
18 1 0.732542 0.221698 0.378987
19 1 0.514442 0.997667 0.363618
20 1 0.0115751 0.520575 0.136982
21 1 0.749149 0.255681 0.644547
22 1 0.77237 0.25172 0.888006
23 1 0.492277 0.0361564 0.854672
24 1 0.99239 0.487109 0.623053
25 1 0.745164 0.726283 0.126916
26 1 0.765113 0.751055 0.371956
27 1 0.500861 0.523409 0.366587
28 1 0.996871 0.00419001 0.123731
29 1 0.720495 0.755631 0.647993
30 1 0.730983 0.750848 0.883153
31 1 0.496917 0.507957 0.887319
32 1 0.000625563 0.991689 0.614059
33 2 0.981591 0.247174 0.132694
34 2 0.484517 0.270217 0.371248
35 2 0.235425 0.00676901 0.374765
36 2 0.260302 0.521258 0.124439
37 2 0.128781 0.367267 0.518766
38 2 0.353091 0.148202 0.00282759
39 2 0.105036 0.117134 0.00768962
40 2 0.370333 0.37451 0.52299
41 2 0.361278 0.130774 0.240737
42 2 0.143896 0.366446 0.236263
43 2 0.389653 0.383827 0.239473
44 2 0.120893 0.115998 0.235141
45 2 0.973903 0.250012 0.626181
46 2 0.490539 0.25276 0.874084
47 2 0.255052 0.010942 0.870185
48 2 0.25037 0.531725 0.632233
49 2 0.140583 0.37238 0.0115508
50 2 0.369406 0.128858 0.498327
51 2 0.124176 0.121002 0.511468
52 2 0.398197 0.405614 0.00472624
53 2 0.377439 0.120115 0.744163
54 2 0.0935902 0.387813 0.737732
55 2 0.360815 0.369307 0.743517
56 2 0.136953 0.130987 0.736579
57 2 0.0143334 0.73897 0.12332
58 2 0.527243 0.750634 0.370459
59 2 0.253929 0.47744 0.370498
60 2 0.257467 0.981636 0.114013
61 2 0.13327 0.87526 0.498236
62 2 0.352561 0.649677 0.985555
63 2 0.102739 0.618373 0.991498
64 2 0.388851 0.882669 0.474738
65 2 0.371595 0.638886 0.268604
66 2 0.126866 0.865512 0.241663
67 2 0.375311 0.88454 0.254626
68 2 0.126152 0.613633 0.25276
69 2 0.0143149 0.741509 0.624892
70 2 0.514513 0.747053 0.880209
71 2 0.239871 0.481646 0.870962
72 2 0.265694 0.991016 0.622651
73 2 0.135626 0.869705 0.978189
74 2 0.382478 0.628211 0.499948
75 2 0.132477 0.623179 0.488511
76 2 0.386995 0.886011 0.984968
77 2 0.372157 0.622695 0.771847
78 2 0.109263 0.886936 0.746699
79 2 0.361166 0.873508 0.757534
80 2 0.13495 0.630694 0.757234
81 2 0.507695 0.226418 0.120451
82 2 0.0207599 0.237569 0.377613
83 2 0.755914 0.974018 0.371643
84 2 0.760217 0.49136 0.127402
85 2 0.616851 0.362918 0.489256
86 2 0.85899 0.147427 0.998175
87 2 0.604556 0.103291 0.986912
88 2 0.873274 0.370474 0.495997
89 2 0.873607 0.13685 0.255464
90 2 0.647117 0.355391 0.243977
91 2 0.889439 0.382714 0.263415
92 2 0.623336 0.110103 0.262044
93 2 0.518078 0.247847 0.623421
94 2 0.0224079 0.260477 0.871532
95 2 0.765951 0.991327 0.880229
96 2 0.738126 0.466528 0.632721
97 2 0.644 0.354825 0.995
98 2 0.874358 0.125295 0.489928
99 2 0.61281 0.11434 0.479428
100 2 0.881835 0.394839 0.993042
101 2 0.88994 0.11337 0.767151
102 2 0.607665 0.382564 0.755525
103 2 0.859022 0.360337 0.755214
104 2 0.640004 0.137111 0.752412
105 2 0.485008 0.75309 0.124274
106 2 0.984982 0.744376 0.375085
107 2 0.751914 0.515271 0.375331
108 2 0.748829 0.0224471 0.12697
109 2 0.641343 0.859453 0.499985
110 2 0.850582 0.648306 0.0043354
111 2 0.608165 0.599586 0.0117642
112 2 0.891644 0.871887 0.503724
113 2 0.853987 0.630935 0.244558
114 2 0.629974 0.876544 0.228101
115 2 0.893786 0.875713 0.237951
116 2 0.61158 0.610884 0.243406
117 2 0.493737 0.754148 0.632838
118 2 0.971044 0.759769 0.876397
119 2 0.752651 0.512661 0.876939
120 2 0.738095 0.012458 0.616021
121 2 0.632866 0.847082 0.00938998
122 2 0.897013 0.609592 0.511683
123 2 0.64257 0.62168 0.508132
124 2 0.890931 0.900569 0.0142495
125 2 0.889333 0.617785 0.739512
126 2 0.618215 0.878361 0.750806
127 2 0.856147 0.877592 0.741105
128 2 0.622546 0.628424 0.749375
129 3 0.00986921 0.254794 0.0154926
130 3 0.245322 0.000602854 0.992254
131 3 0.0130963 0.254579 0.257202
132 3 0.242167 0.00354082 0.243954
133 3 0.997874 0.245034 0.50156
134 3 0.259219 0.99302 0.497153
135 3 0.99365 0.248251 0.753676
136 3 0.245053 0.994726 0.749326
137 3 0.992689 0.750664 0.997749
138 3 0.254878 0.504242 0.994017
139 3 0.000281753 0.744657 0.249504
140 3 0.251417 0.507021 0.250067
141 3 0.0106038 0.750298 0.504969
142 3 0.245082 0.50006 0.502306
143 3 0.995734 0.756449 0.747048
144 3 0.237285 0.494154 0.74702
145 3 0.499759 0.249554 0.993492
146 3 0.739249 0.00141076 0.00334296
147 3 0.497495 0.241706 0.249213
148 3 0.764207 0.000852286 0.246102
149 3 0.498249 0.246032 0.501234
150 3 0.75084 0.986922 0.494102
151 3 0.488709 0.260983 0.750371
152 3 0.748527 0.00941645 0.751221
153 3 0.492405 0.760749 0.00348352
154 3 0.749104 0.49876 0.996953
155 3 0.505332 0.759247 0.249688
156 3 0.760458 0.490789 0.247166
157 3 0.501433 0.751676 0.497659
158 3 0.749935 0.496754 0.502105
159 3 0.492117 0.754103 0.756353
160 3 0.752293 0.500346 0.749209
ITEM: TIMESTEP
1500
ITEM: NUMBER OF ATOMS
160
ITEM: BOX BOUNDS xy xz yz pp pp pp
5.4790733594927188e-01 1.7432572232013303e+01 2.6465745783269445e-01
3.2368440573608248e-01 1.7078397544535211e+01 3.8221101298591660e-03
7.7285042667619919e-01 2.4171149573323756e+01 2.5008195027124858e-01
ITEM: ATOMS id type xs ys zs
1 1 0.240377 0.24344 0.106829
2 1 0.247881 0.257899 0.371265
3 1 0.0092655 0.00795949 0.378718
4 1 0.475771 0.514126 0.128562
5 1 0.265669 0.23049 0.624341
6 1 0.250203 0.261664 0.885805
7 1 0.00595144 0.992792 0.875155
8 1 0.490792 0.472072 0.618057
9 1 0.249032 0.77006 0.107046
10 1 0.269351 0.75587 0.371945
11 1 0.961609 0.524819 0.390857
12 1 0.47952 0.994734 0.149054
13 1 0.252572 0.763467 0.600892
14 1 0.239924 0.734863 0.872538
15 1 0.993058 0.495546 0.881889
16 1 0.518988 0.989713 0.64899
17 1 0.730411 0.247168 0.129178
18 1 0.732223 0.237703 0.367797
19 1 0.48807 0.0169328 0.374022
20 1 0.996515 0.519517 0.117788
21 1 0.741579 0.246732 0.6139
22 1 0.746113 0.237171 0.87666
23 1 0.496079 0.988346 0.873902
24 1 0.998012 0.500493 0.600171
25 1 0.761239 0.737269 0.121915
26 1 0.755889 0.755835 0.369316
27 1 0.492768 0.525394 0.37561
28 1 0.00897731 0.977426 0.107364
29 1 0.772897 0.743439 0.629709
30 1 0.737427 0.748695 0.885304
31 1 0.532734 0.50009 0.876994
32 1 0.987243 0.0207776 0.613582
33 2 0.979297 0.267877 0.132977
34 2 0.491626 0.260474 0.370968
35 2 0.22032 0.0353207 0.372377
36 2 0.226836 0.530823 0.126152
37 2 0.1073 0.388806 0.488858
38 2 0.36834 0.128283 0.991551
39 2 0.123647 0.124369 0.0217212
40 2 0.372721 0.371927 0.513076
41 2 0.363771 0.129851 0.250893
42 2 0.136256 0.364826 0.25445
43 2 0.372076 0.37771 0.229044
44 2 0.113079 0.108292 0.228886
45 2 0.975556 0.28153 0.618311
46 2 0.476429 0.257832 0.870978
47 2 0.233831 0.0134213 0.872353
48 2 0.25897 0.510676 0.621894
49 2 0.13435 0.373134 0.00800196
50 2 0.361171 0.13687 0.490081
51 2 0.121091 0.13848 0.5212
52 2 0.380126 0.373634 0.014471
53 2 0.372783 0.11636 0.745483
54 2 0.136162 0.377001 0.739494
55 2 0.386759 0.373856 0.737843
56 2 0.138338 0.128049 0.732435
57 2 0.0204539 0.736036 0.119344
58 2 0.530409 0.737791 0.374824
59 2 0.271257 0.494594 0.37778
60 2 0.266595 0.976731 0.129378
61 2 0.126259 0.887564 0.494641
62 2 0.374199 0.649212 0.0105275
63 2 0.109197 0.611609 0.984692
64 2 0.369905 0.880284 0.477338
65 2 0.36425 0.630645 0.260466
66 2 0.137322 0.858266 0.254577
67 2 0.385053 0.89652 0.277357
68 2 0.108706 0.608147 0.266796
69 2 0.0202791 0.738314 0.618993
70 2 0.524694 0.734855 0.882522
71 2 0.266947 0.472789 0.874172
72 2 0.269344 0.980047 0.624042
73 2 0.138657 0.863949 0.983042
74 2 0.369565 0.640405 0.49918
75 2 0.131367 0.629044 0.482331
76 2 0.379638 0.870284 0.982417
77 2 0.378742 0.634387 0.766211
78 2 0.128505 0.88232 0.749275
79 2 0.383733 0.880736 0.763711
80 2 0.129309 0.624141 0.767464
81 2 0.515374 0.219008 0.124412
82 2 0.013281 0.232581 0.374257
83 2 0.76652 0.980259 0.376137
84 2 0.756114 0.47672 0.13385
85 2 0.607083 0.376726 0.493623
86 2 0.881636 0.111314 0.0160426
87 2 0.634932 0.126714 0.974864
88 2 0.863425 0.372705 0.483586
89 2 0.852408 0.137424 0.249699
90 2 0.629898 0.362394 0.247036
91 2 0.871023 0.389168 0.275658
92 2 0.606303 0.113861 0.26478
93 2 0.519264 0.239745 0.627238
94 2 0.0244808 0.225401 0.879398
95 2 0.778756 0.992536 0.875741
96 2 0.740203 0.473597 0.620381
97 2 0.630528 0.373752 0.999381
98 2 0.88179 0.121248 0.504745
99 2 0.639505 0.137008 0.490129
100 2 0.881373 0.375104 0.984905
101 2 0.886538 0.113543 0.741949
102 2 0.637358 0.37141 0.761164
103 2 0.885729 0.367382 0.768238
104 2 0.624457 0.12101 0.775046
105 2 0.487497 0.778945 0.124201
106 2 0.988834 0.771982 0.375812
107 2 0.733653 0.520374 0.381249
108 2 0.727037 0.0125444 0.124327
109 2 0.619402 0.87522 0.50352
110 2 0.870593 0.626443 0.00139649
111 2 0.632124 0.631765 0.0214951
112 2 0.863769 0.870705 0.513365
113 2 0.858029 0.65078 0.249655
114 2 0.64389 0.859798 0.248403
115 2 0.895478 0.894482 0.237641
116 2 0.609606 0.608687 0.238489
117 2 0.487906 0.763775 0.629101
118 2 0.976173 0.751893 0.869082
119 2 0.757537 0.512497 0.876264
120 2 0.715785 0.0283147 0.626989
121 2 0.641155 0.876167 0.992327
122 2 0.883271 0.614048 0.510358
123 2 0.613887 0.611929 0.513565
124 2 0.884085 0.867695 0.012291
125 2 0.87604 0.623979 0.739709
126 2 0.620957 0.875193 0.759056
127 2 0.875615 0.877755 0.73045
128 2 0.622393 0.614435 0.744865
129 3 0.991001 0.231719 0.00800213
130 3 0.252581 0.991048 0.987384
131 3 0.999568 0.254737 0.252945
132 3 0.240874 0.00147432 0.252606
133 3 0.000595212 0.25947 0.496558
134 3 0.240846 0.0185015 0.500443
135 3 0.00826189 0.254054 0.750927
136 3 0.256558 0.996562 0.746299
137 3 0.00315838 0.745033 0.996433
138 3 0.240756 0.499419 0.00448193
139 3 0.0116622 0.750941 0.251062
140 3 0.244324 0.494927 0.253908
141 3 0.998959 0.761482 0.494771
142 3 0.252727 0.505365 0.498691
143 3 0.00622756 0.756374 0.744242
144 3 0.256188 0.505282 0.75322
145 3 0.505189 0.237704 0.998833
146 3 0.754226 0.0030361 0.00536633
147 3 0.485363 0.246853 0.247934
148 3 0.758011 0.989056 0.245954
149 3 0.504981 0.249836 0.498476
150 3 0.748279 0.998391 0.50435
151 3 0.504545 0.253551 0.753579
152 3 0.750739 0.999192 0.752361
153 3 0.505997 0.756734 0.0023718
154 3 0.75529 0.495521 0.0045629
155 3 0.507731 0.756678 0.251373
156 3 0.735437 0.488873 0.255796
157 3 0.503725 0.748588 0.499748
158 3 0.738473 0.488897 0.502748
159 3 0.495982 0.752079 0.748734
160 3 0.75874 0.489241 0.746395
ITEM: TIMESTEP
2000
ITEM: NUMBER OF ATOMS
160
ITEM: BOX BOUNDS xy xz yz pp pp pp
5.9160254434682003e-01 1.7311740459026623e+01 3.5521325032209926e-03
2.6267358057311735e-01 1.7152971440140441e+01 1.8779087087022425e-01
6.8347084940029701e-01 2.4260529150599698e+01 2.6364502071353724e-01
ITEM: ATOMS id type xs ys zs
1 1 0.262254 0.227834 0.128371
2 1 0.285611 0.268631 0.365112
3 1 0.00100755 0.0137191 0.357748
4 1 0.484766 0.492046 0.126417
5 1 0.240793 0.246719 0.628733
6 1 0.243116 0.250871 0.88277
7 1 0.992873 0.990392 0.87082
8 1 0.480615 0.47742 0.625519
9 1 0.239926 0.760646 0.119194
10 1 0.250473 0.729776 0.381002
11 1 0.987257 0.502527 0.383479
12 1 0.495218 0.988691 0.146984
13 1 0.238644 0.734481 0.610821
14 1 0.236284 0.753609 0.873167
15 1 0.00310776 0.511006 0.878316
16 1 0.492357 0.995902 0.644248
17 1 0.739711 0.262198 0.125992
18 1 0.769701 0.244704 0.364184
19 1 0.510433 0.00313489 0.364505
20 1 0.000109167 0.527072 0.117009
21 1 0.751412 0.255267 0.613332
22 1 0.728023 0.26883 0.854395
23 1 0.486419 0.96613 0.867123
24 1 0.0288253 0.523202 0.614304
25 1 0.734672 0.758647 0.13853
26 1 0.734577 0.755283 0.366744
27 1 0.489692 0.506396 0.365261
28 1 0.0108219 0.0128994 0.127696
29 1 0.755681 0.752893 0.620594
30 1 0.734549 0.757298 0.883576
31 1 0.49851 0.517028 0.861498
32 1 0.990455 0.0353188 0.629518
33 2 0.000770876 0.291609 0.132347
34 2 0.521937 0.252201 0.373064
35 2 0.24289 0.0155463 0.372832
36 2 0.213749 0.488724 0.126668
37 2 0.127792 0.370395 0.491568
38 2 0.395852 0.103493 0.998292
39 2 0.147364 0.154902 0.0112022
40 2 0.372027 0.377606 0.49735
41 2 0.391745 0.114849 0.252997
42 2 0.140204 0.352054 0.267357
43 2 0.372825 0.366298 0.239054
44 2 0.119351 0.103865 0.23538
45 2 0.0068585 0.267388 0.63045
46 2 0.477753 0.248649 0.87353
47 2 0.24683 0.0235219 0.877
48 2 0.242296 0.504156 0.626119
49 2 0.106473 0.393177 0.981708
50 2 0.374051 0.112048 0.488868
51 2 0.126201 0.117896 0.521702
52 2 0.358735 0.365162 0.0172637
53 2 0.353702 0.117339 0.72435
54 2 0.124354 0.373124 0.773657
55 2 0.363513 0.363712 0.738353
56 2 0.115588 0.116235 0.74378
57 2 0.0210567 0.744186 0.122929
58 2 0.492582 0.725406 0.381335
59 2 0.271325 0.503646 0.379373
60 2 0.262127 0.985054 0.124732
61 2 0.122296 0.861374 0.48221
62 2 0.391498 0.608602 0.0153116
63 2 0.149954 0.645554 0.994702
64 2 0.379873 0.86733 0.480854
65 2 0.373499 0.608407 0.241419
66 2 0.134493 0.858027 0.251533
67 2 0.373842 0.863772 0.252608
68 2 0.116439 0.617639 0.256727
69 2 0.0216185 0.746874 0.616641
70 2 0.489728 0.746218 0.886105
71 2 0.267598 0.507719 0.876434
72 2 0.247624 0.9649 0.617632
73 2 0.120881 0.884373 0.994172
74 2 0.362455 0.632151 0.510308
75 2 0.123711 0.617426 0.48913
76 2 0.357123 0.856586 0.994698
77 2 0.382564 0.621348 0.738958
78 2 0.119283 0.862543 0.760806
79 2 0.368197 0.870778 0.755096
80 2 0.111122 0.619172 0.751762
81 2 0.507245 0.245736 0.1238
82 2 0.993021 0.232988 0.372025
83 2 0.774588 0.0023088 0.373698
84 2 0.765019 0.475179 0.131361
85 2 0.63071 0.371146 0.501325
86 2 0.888108 0.120656 0.0234941
87 2 0.655798 0.157234 0.998611
88 2 0.87697 0.370212 0.491918
89 2 0.876447 0.135809 0.240233
90 2 0.619849 0.382496 0.254545
91 2 0.887427 0.388643 0.267997
92 2 0.629901 0.128947 0.261886
93 2 0.510123 0.232586 0.622529
94 2 0.000533256 0.2348 0.879443
95 2 0.777153 0.000295644 0.873754
96 2 0.72949 0.483527 0.633057
97 2 0.603435 0.399065 0.00495344
98 2 0.88996 0.118858 0.514236
99 2 0.643507 0.139791 0.489334
100 2 0.853261 0.364401 0.99767
101 2 0.870315 0.142842 0.743196
102 2 0.596716 0.388204 0.747512
103 2 0.878589 0.403399 0.751334
104 2 0.613044 0.125969 0.753031
105 2 0.504136 0.759177 0.122296
106 2 0.986474 0.745386 0.373133
107 2 0.742606 0.521293 0.383721
108 2 0.733143 0.00315897 0.128435
109 2 0.63056 0.874664 0.492333
110 2 0.893085 0.611799 0.0024743
111 2 0.654854 0.650282 0.0096389
112 2 0.86132 0.860706 0.500442
113 2 0.872126 0.633391 0.242993
114 2 0.62578 0.873194 0.266014
115 2 0.879813 0.875816 0.244444
116 2 0.617924 0.630657 0.253054
117 2 0.489117 0.769389 0.621618
118 2 0.985076 0.745606 0.875828
119 2 0.759527 0.503743 0.87757
120 2 0.743114 0.995128 0.623165
121 2 0.622211 0.895465 0.994476
122 2 0.873558 0.604911 0.511617
123 2 0.625633 0.632173 0.526719
124 2 0.874987 0.867555 0.00236988
125 2 0.86519 0.654287 0.732855
126 2 0.632885 0.877484 0.753775
127 2 0.883027 0.877545 0.736711
128 2 0.628508 0.636801 0.767552
129 3 0.00082887 0.264389 0.000324318
130 3 0.258443 0.992739 0.993029
131 3 0.000940398 0.250172 0.246225
132 3 0.257344 0.987973 0.245941
133 3 0.00482462 0.25173 0.493761
134 3 0.247101 0.984343 0.488582
135 3 0.0042146 0.254428 0.755393
136 3 0.235064 0.990329 0.747263
137 3 0.00343155 0.752319 0.996543
138 3 0.240307 0.512143 0.00133178
139 3 0.996929 0.749958 0.244176
140 3 0.238604 0.491003 0.248129
141 3 0.984147 0.741675 0.495053
142 3 0.254379 0.499603 0.499549
143 3 0.999831 0.748684 0.748398
144 3 0.25791 0.492833 0.759025
145 3 0.500264 0.255211 0.996465
146 3 0.755694 0.00796647 0.000260731
147 3 0.50982 0.245471 0.25039
148 3 0.758217 0.00189593 0.252794
149 3 0.500889 0.241317 0.497423
150 3 0.759373 0.00200677 0.501385
151 3 0.489291 0.239652 0.746898
152 3 0.759243 0.00223972 0.748203
153 3 0.497003 0.74738 0.00528634
154 3 0.761134 0.503591 0.00272375
155 3 0.498683 0.743657 0.260321
156 3 0.749592 0.497577 0.254866
157 3 0.502504 0.747867 0.503683
158 3 0.744504 0.495887 0.51189
159 3 0.50104 0.745995 0.751813
160 3 0.757856 0.525285 0.753793
ITEM: TIMESTEP
2500
ITEM: NUMBER OF ATOMS
160
ITEM: BOX BOUNDS xy xz yz pp pp pp
1.8408024830336156e-01 1.7237043004135227e+01 -1.6827467537745383e-01
2.5234260726017782e-01 1.6987725598190401e+01 -1.2260207218391701e-01
9.0400932950364954e-01 2.4039990670496390e+01 8.8068205450582707e-02
ITEM: ATOMS id type xs ys zs
1 1 0.235326 0.254806 0.131849
2 1 0.284649 0.260818 0.365194
3 1 0.00579832 0.0191314 0.371431
4 1 0.50215 0.497691 0.11388
5 1 0.246343 0.271025 0.615283
6 1 0.239933 0.24395 0.881923
7 1 0.00530665 0.988882 0.879902
8 1 0.51451 0.489289 0.621552
9 1 0.240316 0.768216 0.115636
10 1 0.235464 0.752772 0.383805
11 1 0.979922 0.526349 0.394971
12 1 0.48281 0.993866 0.125287
13 1 0.238121 0.739111 0.613293
14 1 0.240386 0.758921 0.883914
15 1 0.0081889 0.487416 0.880496
16 1 0.493206 0.0084344 0.617803
17 1 0.752658 0.246007 0.132154
18 1 0.750997 0.251034 0.394604
19 1 0.513756 0.0129054 0.374281
20 1 0.0112919 0.512655 0.133458
21 1 0.76562 0.253573 0.614696
22 1 0.756063 0.255304 0.863634
23 1 0.496519 0.986059 0.864418
24 1 0.00681835 0.518631 0.617297
25 1 0.744297 0.744406 0.132334
26 1 0.742451 0.756769 0.382555
27 1 0.499429 0.491577 0.364077
28 1 0.00710482 0.0127489 0.111338
29 1 0.74551 0.740219 0.625617
30 1 0.743538 0.746418 0.885038
31 1 0.511406 0.512846 0.851671
32 1 0.995767 0.997892 0.634792
33 2 0.00333999 0.281814 0.130311
34 2 0.481614 0.248372 0.373188
35 2 0.256674 0.022313 0.371289
36 2 0.23351 0.491115 0.126219
37 2 0.120512 0.383954 0.496126
38 2 0.371755 0.135727 0.0012367
39 2 0.122736 0.13535 0.0119331
40 2 0.363641 0.365654 0.51168
41 2 0.370955 0.114181 0.237303
42 2 0.11735 0.372509 0.264826
43 2 0.363558 0.364107 0.243387
44 2 0.123499 0.114533 0.230624
45 2 0.0117378 0.257218 0.629157
46 2 0.464036 0.257053 0.867762
47 2 0.243904 0.0273987 0.871543
48 2 0.232272 0.512428 0.628605
49 2 0.130028 0.376935 0.981099
50 2 0.375231 0.127447 0.512258
51 2 0.135299 0.115274 0.507456
52 2 0.37422 0.373178 0.0123347
53 2 0.380438 0.10771 0.726412
54 2 0.126105 0.370166 0.772714
55 2 0.368692 0.374126 0.737891
56 2 0.128259 0.11459 0.738309
57 2 0.0289207 0.743965 0.126762
58 2 0.473546 0.737317 0.370697
59 2 0.277553 0.493017 0.370054
60 2 0.256127 0.98051 0.122469
61 2 0.117029 0.876073 0.482303
62 2 0.385572 0.633494 0.0113294
63 2 0.133563 0.627868 0.98698
64 2 0.373488 0.877155 0.490244
65 2 0.36902 0.615612 0.234581
66 2 0.122629 0.87413 0.25273
67 2 0.376267 0.87412 0.244772
68 2 0.126947 0.628345 0.268418