ITEM: TIMESTEP
0
ITEM: NUMBER OF ATOMS
160
ITEM: BOX BOUNDS xy xz yz pp pp pp
8.4071489120345178e-01 2.0027685108796550e+01 0.0000000000000000e+00
4.6490241975760255e-01 1.8697097580242392e+01 0.0000000000000000e+00
7.3921724036886094e-01 1.7021782759631133e+01 0.0000000000000000e+00
ITEM: ATOMS id type xs ys zs
1 1 0.21438 0.0534694 0.688597
2 1 0.0361466 0.190609 0.187694
3 1 0.289643 0.181969 0.317093
4 1 0.448591 0.0464033 0.809001
5 1 0.207498 0.317892 0.700813
6 1 0.0401089 0.449904 0.192372
7 1 0.288589 0.437645 0.315768
8 1 0.441435 0.314541 0.817356
9 1 0.214549 0.570155 0.695442
10 1 0.0362889 0.675846 0.182717
11 1 0.293772 0.690102 0.313438
12 1 0.461691 0.563289 0.822968
13 1 0.216351 0.80822 0.688831
14 1 0.0514813 0.92586 0.183867
15 1 0.292036 0.939586 0.31251
16 1 0.461282 0.808106 0.814153
17 1 0.707584 0.0603729 0.691385
18 1 0.537965 0.191801 0.196462
19 1 0.791047 0.195109 0.309007
20 1 0.962907 0.0502417 0.81297
21 1 0.709269 0.30876 0.699113
22 1 0.539939 0.43621 0.196343
23 1 0.784435 0.439253 0.307865
24 1 0.959871 0.32572 0.79815
25 1 0.710223 0.55839 0.689866
26 1 0.541846 0.688696 0.18337
27 1 0.794128 0.67516 0.316231
28 1 0.954015 0.557694 0.805326
29 1 0.704329 0.810255 0.681792
30 1 0.544156 0.93351 0.192129
31 1 0.786936 0.947677 0.312281
32 1 0.955164 0.809139 0.800985
33 2 0.0823883 0.0613537 0.0223557
34 2 0.16532 0.192545 0.531122
35 2 0.413416 0.191224 0.981633
36 2 0.333821 0.0702387 0.473778
37 2 0.161879 0.0629329 0.3007
38 2 0.0964744 0.195244 0.791985
39 2 0.3439 0.180343 0.705821
40 2 0.402023 0.0617017 0.202268
41 2 0.00418205 0.0610636 0.600249
42 2 0.24132 0.186339 0.0972597
43 2 0.50234 0.190693 0.411515
44 2 0.243681 0.0607231 0.906655
45 2 0.0822296 0.314087 0.017428
46 2 0.173418 0.430141 0.519549
47 2 0.407515 0.441245 0.978618
48 2 0.342137 0.314721 0.478759
49 2 0.152078 0.318844 0.291968
50 2 0.0985358 0.445507 0.793038
51 2 0.353331 0.45002 0.708497
52 2 0.404842 0.317812 0.211037
53 2 0.003157 0.313687 0.593033
54 2 0.241781 0.437718 0.0980655
55 2 0.499641 0.436883 0.40294
56 2 0.248571 0.309911 0.904641
57 2 0.0824367 0.562838 0.0175988
58 2 0.17362 0.68294 0.504775
59 2 0.413935 0.6906 0.97803
60 2 0.346555 0.570777 0.481722
61 2 0.156476 0.563215 0.298511
62 2 0.0972651 0.689557 0.788837
63 2 0.349353 0.689843 0.70366
64 2 0.395923 0.554206 0.209456
65 2 0.00607242 0.560133 0.59888
66 2 0.246374 0.687171 0.0982971
67 2 0.502572 0.689139 0.40356
68 2 0.254204 0.567068 0.901599
69 2 0.086957 0.806955 0.0222606
70 2 0.160633 0.936647 0.526825
71 2 0.413378 0.944053 0.990977
72 2 0.330863 0.816363 0.486578
73 2 0.156751 0.809582 0.291485
74 2 0.0984096 0.931386 0.781567
75 2 0.343464 0.936769 0.702701
76 2 0.406806 0.81449 0.204533
77 2 0.0047489 0.802697 0.599128
78 2 0.239506 0.938523 0.101221
79 2 0.495961 0.946251 0.404753
80 2 0.25305 0.812568 0.900601
81 2 0.58947 0.0582405 0.0308466
82 2 0.662725 0.18468 0.535176
83 2 0.920829 0.186362 0.984625
84 2 0.842759 0.064181 0.474374
85 2 0.653439 0.0650283 0.294133
86 2 0.587531 0.173565 0.796699
87 2 0.848913 0.184097 0.70493
88 2 0.91651 0.0629935 0.197365
89 2 0.506048 0.0658367 0.601417
90 2 0.746656 0.188592 0.0912576
91 2 0.00800256 0.193489 0.401903
92 2 0.751409 0.0573085 0.909933
93 2 0.583763 0.311424 0.0258191
94 2 0.669173 0.43904 0.523814
95 2 0.916118 0.440106 0.976893
96 2 0.829164 0.311546 0.479602
97 2 0.65561 0.3075 0.301145
98 2 0.5868 0.429313 0.803766
99 2 0.850113 0.438779 0.691641
100 2 0.90631 0.324939 0.200177
101 2 0.498693 0.316069 0.600663
102 2 0.747012 0.436445 0.0954255
103 2 0.00153261 0.437688 0.403822
104 2 0.748078 0.304085 0.896275
105 2 0.57795 0.562946 0.0202748
106 2 0.667521 0.683473 0.51975
107 2 0.910426 0.689279 0.980562
108 2 0.836242 0.560317 0.477812
109 2 0.643705 0.566293 0.282253
110 2 0.594378 0.685501 0.790312
111 2 0.838813 0.693794 0.712725
112 2 0.896081 0.55274 0.205757
113 2 0.503992 0.564987 0.596446
114 2 0.748523 0.685775 0.0974651
115 2 0.996239 0.685492 0.406283
116 2 0.750887 0.561323 0.900378
117 2 0.584889 0.810825 0.021109
118 2 0.677315 0.941305 0.508096
119 2 0.92742 0.927139 0.967974
120 2 0.833614 0.805862 0.480323
121 2 0.653733 0.81407 0.290296
122 2 0.59625 0.940537 0.791439
123 2 0.842976 0.933744 0.702988
124 2 0.900491 0.825414 0.20329
125 2 0.505268 0.822369 0.598846
126 2 0.748758 0.931825 0.0919958
127 2 0.999079 0.937488 0.40769
128 2 0.757036 0.811579 0.897599
129 3 0.101242 0.0667781 0.458815
130 3 0.151538 0.189033 0.954909
131 3 0.411891 0.185468 0.553502
132 3 0.331505 0.0648503 0.0451911
133 3 0.0965324 0.31293 0.449203
134 3 0.154654 0.441133 0.950711
135 3 0.412247 0.444176 0.550406
136 3 0.341567 0.315276 0.0588392
137 3 0.0919937 0.55882 0.452323
138 3 0.16057 0.68731 0.944591
139 3 0.415483 0.699057 0.548667
140 3 0.337376 0.563963 0.0535741
141 3 0.0907363 0.81011 0.450012
142 3 0.154644 0.930405 0.938597
143 3 0.40375 0.948094 0.549495
144 3 0.34296 0.818682 0.0456987
145 3 0.59924 0.064638 0.457725
146 3 0.648937 0.181243 0.953945
147 3 0.908006 0.190193 0.542916
148 3 0.843057 0.051656 0.0490372
149 3 0.595269 0.311956 0.460712
150 3 0.65549 0.437428 0.95614
151 3 0.911518 0.431021 0.540673
152 3 0.844682 0.310041 0.0420335
153 3 0.590835 0.56253 0.4452
154 3 0.659958 0.68265 0.944225
155 3 0.904362 0.685541 0.554325
156 3 0.840636 0.559653 0.0413618
157 3 0.5875 0.822502 0.445951
158 3 0.659078 0.935479 0.949263
159 3 0.910252 0.935381 0.54238
160 3 0.837425 0.81201 0.0500872
ITEM: TIMESTEP
500
ITEM: NUMBER OF ATOMS
160
ITEM: BOX BOUNDS xy xz yz pp pp pp
5.3635041227492408e-02 2.0969883989422399e+01 3.7895832325659330e-02
5.1678853023417248e-01 1.8659732611751078e+01 1.1722319832416896e-01
5.2371683357870491e-01 1.7237283166421317e+01 1.4521141985290460e-02
ITEM: ATOMS id type xs ys zs
1 1 0.219766 0.0625111 0.670139
2 1 0.0380547 0.1987 0.176937
3 1 0.281198 0.190351 0.326794
4 1 0.464368 0.068147 0.816541
5 1 0.197903 0.309997 0.685784
6 1 0.0274782 0.437927 0.19121
7 1 0.288615 0.444193 0.310642
8 1 0.45296 0.304605 0.812507
9 1 0.221526 0.547086 0.684307
10 1 0.0396054 0.689979 0.180325
11 1 0.298475 0.686086 0.324389
12 1 0.468291 0.554638 0.814731
13 1 0.220533 0.812694 0.677336
14 1 0.043659 0.946089 0.16064
15 1 0.278035 0.934249 0.311534
16 1 0.472589 0.803203 0.8148
17 1 0.716455 0.0609224 0.673614
18 1 0.53078 0.190311 0.194368
19 1 0.783408 0.180784 0.319267
20 1 0.959015 0.0480643 0.819523
21 1 0.70937 0.301847 0.688121
22 1 0.546062 0.43448 0.187984
23 1 0.792732 0.422765 0.324967
24 1 0.953608 0.316472 0.822679
25 1 0.725092 0.5767 0.67227
26 1 0.52976 0.705016 0.18029
27 1 0.786751 0.675963 0.311622
28 1 0.97619 0.555816 0.822359
29 1 0.718427 0.813523 0.668002
30 1 0.529458 0.934018 0.178213
31 1 0.782678 0.935352 0.326398
32 1 0.980614 0.810563 0.822231
33 2 0.0883122 0.0652193 0.00635874
34 2 0.154205 0.1844 0.512423
35 2 0.415731 0.188025 0.98441
36 2 0.340573 0.0661698 0.466857
37 2 0.144473 0.068759 0.28477
38 2 0.0874179 0.17963 0.805428
39 2 0.334614 0.195344 0.682632
40 2 0.39822 0.0739024 0.189794
41 2 0.996488 0.0581208 0.592321
42 2 0.247449 0.192014 0.085687
43 2 0.498865 0.190339 0.405877
44 2 0.251399 0.0711604 0.890286
45 2 0.0824689 0.323754 0.019038
46 2 0.158741 0.432699 0.518139
47 2 0.40875 0.436352 0.970872
48 2 0.336617 0.314161 0.474586
49 2 0.152741 0.307846 0.294918
50 2 0.104918 0.440482 0.797325
51 2 0.352247 0.429232 0.713119
52 2 0.39937 0.32116 0.197037
53 2 0.00227006 0.313863 0.60127
54 2 0.249195 0.438896 0.0834463
55 2 0.493129 0.447215 0.404835
56 2 0.240925 0.309108 0.900884
57 2 0.0912614 0.572493 0.00647813
58 2 0.158364 0.67998 0.515164
59 2 0.413507 0.691933 0.991512
60 2 0.333143 0.568715 0.485496
61 2 0.143396 0.566903 0.282435
62 2 0.0981655 0.686633 0.801715
63 2 0.350458 0.678277 0.704268
64 2 0.39758 0.549654 0.199033
65 2 0.99818 0.555995 0.588229
66 2 0.248822 0.678441 0.0844123
67 2 0.497888 0.696456 0.409811
68 2 0.256523 0.564773 0.895728
69 2 0.098035 0.817807 0.00765263
70 2 0.170133 0.937868 0.503752
71 2 0.409488 0.941213 0.974866
72 2 0.340267 0.808639 0.487041
73 2 0.15402 0.81032 0.306714
74 2 0.105811 0.948182 0.786851
75 2 0.354782 0.94467 0.703077
76 2 0.387946 0.81416 0.21232
77 2 0.00169465 0.817248 0.590765
78 2 0.247647 0.95509 0.0826056
79 2 0.501879 0.942306 0.409333
80 2 0.258144 0.815288 0.904864
81 2 0.587993 0.0491305 0.0247182
82 2 0.656471 0.192474 0.522861
83 2 0.917697 0.196368 0.989627
84 2 0.834971 0.0662872 0.483932
85 2 0.655922 0.0629896 0.306556
86 2 0.600817 0.177993 0.808128
87 2 0.850431 0.161979 0.704142
88 2 0.899678 0.0592536 0.215523
89 2 0.490413 0.066295 0.599129
90 2 0.747499 0.183573 0.0972265
91 2 0.997056 0.188032 0.406277
92 2 0.753582 0.0555587 0.912395
93 2 0.589238 0.31161 0.0184811
94 2 0.659216 0.435979 0.503663
95 2 0.905285 0.442641 0.984731
96 2 0.842398 0.308296 0.495908
97 2 0.646793 0.313892 0.303034
98 2 0.593464 0.423801 0.802584
99 2 0.846469 0.436769 0.709112
100 2 0.888464 0.303282 0.211512
101 2 0.492436 0.313061 0.593365
102 2 0.751493 0.433206 0.0895164
103 2 0.0016251 0.432203 0.405091
104 2 0.751224 0.306594 0.911877
105 2 0.58978 0.558905 0.00919092
106 2 0.666404 0.697543 0.506652
107 2 0.919881 0.687284 0.0072356
108 2 0.837633 0.555151 0.487249
109 2 0.654404 0.556769 0.304874
110 2 0.602073 0.679286 0.79587
111 2 0.85496 0.691303 0.70511
112 2 0.901693 0.556725 0.218388
113 2 0.507416 0.559937 0.591195
114 2 0.748556 0.682083 0.097331
115 2 0.00067634 0.681952 0.410594
116 2 0.754884 0.561697 0.912698
117 2 0.594339 0.805099 0.0132755
118 2 0.659365 0.947948 0.527684
119 2 0.91542 0.934036 0.985638
120 2 0.839622 0.817488 0.490538
121 2 0.630744 0.814665 0.284953
122 2 0.611097 0.929246 0.795319
123 2 0.850268 0.932321 0.712374
124 2 0.904648 0.823527 0.206085
125 2 0.499693 0.818979 0.592654
126 2 0.749487 0.936375 0.0974002
127 2 0.00364836 0.939223 0.409765
128 2 0.753693 0.807026 0.922189
129 3 0.0884709 0.0615239 0.444309
130 3 0.154431 0.194701 0.947658
131 3 0.415031 0.194835 0.545087
132 3 0.335641 0.0672134 0.0412049
133 3 0.0832693 0.309178 0.450799
134 3 0.159517 0.441932 0.947338
135 3 0.403119 0.440747 0.55321
136 3 0.33603 0.310193 0.0479988
137 3 0.089376 0.555951 0.43723
138 3 0.172514 0.691816 0.941211
139 3 0.417063 0.689056 0.556954
140 3 0.344311 0.560951 0.0454416
141 3 0.0867248 0.808817 0.452234
142 3 0.170655 0.94463 0.934455
143 3 0.408154 0.940079 0.544243
144 3 0.340334 0.818439 0.0534975
145 3 0.584671 0.0690977 0.458158
146 3 0.660581 0.182559 0.962589
147 3 0.911105 0.182058 0.55267
148 3 0.839967 0.0639678 0.0571139
149 3 0.576466 0.320225 0.448128
150 3 0.662018 0.434326 0.947387
151 3 0.911119 0.435392 0.563635
152 3 0.834705 0.310117 0.05655
153 3 0.59205 0.569834 0.451234
154 3 0.666314 0.685172 0.950202
155 3 0.913206 0.686063 0.552875
156 3 0.844549 0.559094 0.0628558
157 3 0.585606 0.820866 0.445115
158 3 0.668442 0.934543 0.949948
159 3 0.912116 0.939343 0.55712
160 3 0.831 0.816085 0.0607258
ITEM: TIMESTEP
1000
ITEM: NUMBER OF ATOMS
160
ITEM: BOX BOUNDS xy xz yz pp pp pp
3.5090619657381701e-02 2.0721072086573436e+01 -7.5682367959455737e-02
3.9498377587149558e-01 1.8651623684317478e+01 -3.6554925809693599e-02
5.0099106323801168e-01 1.7260008936761999e+01 -1.1539253981098596e-01
ITEM: ATOMS id type xs ys zs
1 1 0.203194 0.0477759 0.698157
2 1 0.0369568 0.177688 0.188459
3 1 0.29137 0.193757 0.299046
4 1 0.461704 0.0427799 0.809495
5 1 0.204203 0.299971 0.687603
6 1 0.0379485 0.446783 0.182984
7 1 0.287726 0.443823 0.326352
8 1 0.46636 0.30674 0.811473
9 1 0.215996 0.56413 0.682855
10 1 0.028699 0.69079 0.191681
11 1 0.285587 0.686188 0.306351
12 1 0.464966 0.560663 0.823466
13 1 0.222697 0.803293 0.67934
14 1 0.0367178 0.941392 0.178334
15 1 0.292991 0.943438 0.319757
16 1 0.460317 0.810284 0.816829
17 1 0.708083 0.0720153 0.684165
18 1 0.544374 0.179723 0.17997
19 1 0.796355 0.182651 0.328226
20 1 0.957832 0.0565841 0.809914
21 1 0.704007 0.323825 0.688901
22 1 0.533286 0.420621 0.180505
23 1 0.783387 0.439641 0.301649
24 1 0.962898 0.310075 0.817622
25 1 0.719767 0.561823 0.688794
26 1 0.539297 0.670307 0.186879
27 1 0.792661 0.688824 0.322759
28 1 0.968378 0.568156 0.821326
29 1 0.71403 0.805084 0.689771
30 1 0.540221 0.93468 0.192506
31 1 0.780939 0.937246 0.307337
32 1 0.975301 0.810164 0.810962
33 2 0.0883363 0.0509108 0.0274407
34 2 0.15151 0.19323 0.525929
35 2 0.408202 0.183047 0.970854
36 2 0.333792 0.0712679 0.476736
37 2 0.144105 0.0719081 0.298614
38 2 0.0913253 0.180453 0.808653
39 2 0.352914 0.189825 0.700111
40 2 0.405852 0.0499679 0.201465
41 2 0.000135604 0.0658688 0.599877
42 2 0.252529 0.198365 0.0914751
43 2 0.503655 0.178716 0.401885
44 2 0.251184 0.0501374 0.906847
45 2 0.0901617 0.30659 0.0291238
46 2 0.154696 0.44612 0.51783
47 2 0.417211 0.440486 0.964207
48 2 0.335824 0.304082 0.476891
49 2 0.165145 0.327749 0.315578
50 2 0.0892436 0.436066 0.814031
51 2 0.341657 0.438494 0.693578
52 2 0.406141 0.299554 0.192748
53 2 0.989986 0.310392 0.598508
54 2 0.257133 0.432318 0.0880443
55 2 0.504455 0.431794 0.407373
56 2 0.247883 0.307867 0.909038
57 2 0.0922097 0.556602 0.022387
58 2 0.160199 0.690518 0.515909
59 2 0.418039 0.6877 0.996244
60 2 0.334931 0.570315 0.484603
61 2 0.142821 0.565172 0.290512
62 2 0.110867 0.695919 0.794162
63 2 0.362945 0.680779 0.707275
64 2 0.397172 0.548187 0.201028
65 2 0.00566923 0.563631 0.59027
66 2 0.252909 0.680161 0.0955859
67 2 0.506431 0.68399 0.407415
68 2 0.247444 0.564537 0.904166
69 2 0.086579 0.804379 0.0163837
70 2 0.166281 0.946713 0.525328
71 2 0.414084 0.933489 0.979031
72 2 0.337708 0.813771 0.498454
73 2 0.144949 0.815332 0.304597
74 2 0.109801 0.929494 0.800296
75 2 0.349465 0.940628 0.704864
76 2 0.40379 0.808576 0.210402
77 2 0.998728 0.819626 0.595435
78 2 0.257306 0.940276 0.0946896
79 2 0.498117 0.929139 0.408777
80 2 0.251868 0.810884 0.917488
81 2 0.575984 0.068098 0.0156987
82 2 0.660132 0.189561 0.518062
83 2 0.905363 0.193207 0.972842
84 2 0.850949 0.0624753 0.470035
85 2 0.646372 0.0513652 0.291244
86 2 0.594114 0.185295 0.781535
87 2 0.844938 0.198221 0.693263
88 2 0.895377 0.0694834 0.199096
89 2 0.501357 0.0602072 0.594773
90 2 0.743556 0.196727 0.0852213
91 2 0.996507 0.190065 0.402065
92 2 0.7464 0.0757305 0.909904
93 2 0.584635 0.316054 0.0043013
94 2 0.66604 0.431095 0.519753
95 2 0.906531 0.443907 0.975332
96 2 0.841574 0.312511 0.473111
97 2 0.652873 0.299683 0.292164
98 2 0.598788 0.454512 0.786986
99 2 0.855681 0.438411 0.695829
100 2 0.905691 0.319899 0.187096
101 2 0.496626 0.312062 0.586651
102 2 0.741247 0.439924 0.0879762
103 2 0.993494 0.441524 0.403462
104 2 0.744828 0.322086 0.888058
105 2 0.587821 0.566457 0.0152944
106 2 0.661912 0.679321 0.527131
107 2 0.906512 0.692154 0.981709
108 2 0.835594 0.563225 0.48493
109 2 0.644694 0.567227 0.300654
110 2 0.593866 0.68132 0.812562
111 2 0.857545 0.679605 0.707884
112 2 0.89727 0.559671 0.206854
113 2 0.496271 0.555471 0.593519
114 2 0.752972 0.690946 0.108801
115 2 0.992693 0.687254 0.407986
116 2 0.752137 0.571496 0.899921
117 2 0.589146 0.821279 0.0348574
118 2 0.671875 0.94323 0.515202
119 2 0.908604 0.954455 0.975236
120 2 0.83523 0.805691 0.478472
121 2 0.643792 0.814668 0.303835
122 2 0.605511 0.931873 0.796752
123 2 0.843767 0.941958 0.694362
124 2 0.903305 0.821715 0.209297
125 2 0.501875 0.808267 0.601598
126 2 0.749818 0.945435 0.0964821
127 2 0.00333266 0.940224 0.41382
128 2 0.741183 0.81504 0.914195
129 3 0.0877352 0.0640315 0.455163
130 3 0.157665 0.177182 0.955722
131 3 0.416479 0.18661 0.54762
132 3 0.349078 0.0608651 0.047006
133 3 0.0857261 0.31786 0.455944
134 3 0.161723 0.429338 0.960203
135 3 0.405871 0.439683 0.546506
136 3 0.345497 0.31168 0.0331632
137 3 0.0854703 0.562298 0.442377
138 3 0.165125 0.681472 0.950821
139 3 0.41516 0.686835 0.551618
140 3 0.342118 0.553649 0.0450842
141 3 0.0937619 0.819491 0.459755
142 3 0.160425 0.929363 0.962904
143 3 0.406768 0.946409 0.548303
144 3 0.339559 0.810813 0.0550032
145 3 0.59465 0.0564972 0.451333
146 3 0.656374 0.193484 0.938446
147 3 0.90724 0.186427 0.539967
148 3 0.833723 0.0734179 0.0423604
149 3 0.587214 0.308535 0.448689
150 3 0.659163 0.446533 0.93725
151 3 0.912852 0.434155 0.545077
152 3 0.838141 0.319922 0.0376211
153 3 0.592475 0.558061 0.459131
154 3 0.660732 0.690662 0.960433
155 3 0.918806 0.684163 0.550675
156 3 0.842124 0.571007 0.052836
157 3 0.58932 0.810924 0.460646
158 3 0.657342 0.950556 0.951963
159 3 0.907558 0.934424 0.545453
160 3 0.837611 0.820873 0.0534813
ITEM: TIMESTEP
1500
ITEM: NUMBER OF ATOMS
160
ITEM: BOX BOUNDS xy xz yz pp pp pp
1.8204352050752021e-03 2.1043700295186991e+01 -6.5293250837029873e-02
4.4226584115113465e-01 1.8620247347318145e+01 2.4241398122911506e-01
6.4604715194160789e-01 1.7114952848058405e+01 -9.9486811530677302e-02
ITEM: ATOMS id type xs ys zs
1 1 0.225036 0.0517908 0.700468
2 1 0.0273174 0.179835 0.191901
3 1 0.288984 0.197055 0.323848
4 1 0.47063 0.059432 0.825507
5 1 0.227765 0.313505 0.682333
6 1 0.0325428 0.438296 0.171493
7 1 0.282043 0.433321 0.333104
8 1 0.45781 0.331134 0.819854
9 1 0.221113 0.565449 0.681842
10 1 0.0254005 0.690654 0.191896
11 1 0.27558 0.686087 0.311847
12 1 0.47324 0.553922 0.824762
13 1 0.216499 0.813462 0.683625
14 1 0.0289466 0.957159 0.187912
15 1 0.287115 0.94799 0.308648
16 1 0.478203 0.80543 0.806799
17 1 0.716617 0.053472 0.680611
18 1 0.531927 0.192506 0.201779
19 1 0.788644 0.191509 0.303801
20 1 0.961311 0.0525909 0.803481
21 1 0.719324 0.298334 0.695666
22 1 0.528439 0.443584 0.198838
23 1 0.783586 0.438847 0.313187
24 1 0.961921 0.315126 0.795619
25 1 0.709149 0.573098 0.683624
26 1 0.536805 0.679389 0.189354
27 1 0.778354 0.660044 0.324171
28 1 0.965806 0.566604 0.814163
29 1 0.717165 0.803244 0.678254
30 1 0.532917 0.932726 0.17819
31 1 0.772106 0.938548 0.300689
32 1 0.966202 0.817407 0.798676
33 2 0.0848066 0.0622392 0.0259095
34 2 0.162554 0.198111 0.520147
35 2 0.411003 0.182631 0.984162
36 2 0.344222 0.062377 0.497032
37 2 0.148679 0.0603261 0.313741
38 2 0.0970026 0.167668 0.789052
39 2 0.354147 0.183996 0.715032
40 2 0.391604 0.0632813 0.201827
41 2 0.987576 0.0702768 0.593374
42 2 0.24629 0.182088 0.0902741
43 2 0.499185 0.192243 0.41569
44 2 0.244485 0.0594593 0.907523
45 2 0.080744 0.312096 0.00709786
46 2 0.160418 0.435781 0.516475
47 2 0.411341 0.434519 0.988031
48 2 0.332513 0.306583 0.499737
49 2 0.156054 0.316681 0.287833
50 2 0.107765 0.442358 0.781795
51 2 0.359014 0.452442 0.701923
52 2 0.399427 0.31418 0.212851
53 2 0.989061 0.306094 0.591711
54 2 0.248441 0.436818 0.09001
55 2 0.497838 0.426581 0.406582
56 2 0.250672 0.305776 0.904379
57 2 0.08586 0.567656 0.0174722
58 2 0.164812 0.687387 0.511315
59 2 0.41838 0.685583 0.977111
60 2 0.336351 0.563036 0.490001
61 2 0.149323 0.561081 0.291017
62 2 0.10127 0.681558 0.797612
63 2 0.345953 0.697766 0.712397
64 2 0.395422 0.567513 0.205483
65 2 0.999136 0.569403 0.592436
66 2 0.249439 0.682029 0.0902072
67 2 0.49768 0.685737 0.402154
68 2 0.253288 0.555963 0.902318
69 2 0.0782022 0.811577 0.0131223
70 2 0.165474 0.935455 0.52922
71 2 0.412605 0.939779 0.981515
72 2 0.342068 0.811969 0.501403
73 2 0.141525 0.811483 0.290206
74 2 0.10485 0.941764 0.79237
75 2 0.362136 0.944408 0.717031
76 2 0.387812 0.81041 0.210223
77 2 0.994483 0.823195 0.575212
78 2 0.246016 0.93405 0.10068
79 2 0.503442 0.941626 0.402276
80 2 0.250763 0.81318 0.908807
81 2 0.587604 0.065998 0.00845704
82 2 0.670405 0.181902 0.513724
83 2 0.91485 0.186978 0.970141
84 2 0.83504 0.0681885 0.468542
85 2 0.648308 0.0680615 0.282755
86 2 0.59355 0.189998 0.788357
87 2 0.8454 0.174809 0.705359
88 2 0.896188 0.0614313 0.19983
89 2 0.510021 0.0643547 0.589093
90 2 0.752312 0.192031 0.0806588
91 2 0.00319745 0.186247 0.399172
92 2 0.747516 0.0625846 0.894991
93 2 0.59126 0.311745 0.031343
94 2 0.662503 0.440854 0.521956
95 2 0.911404 0.436392 0.978756
96 2 0.836303 0.314238 0.472971
97 2 0.65333 0.30142 0.305861
98 2 0.603484 0.432761 0.805924
99 2 0.845665 0.432104 0.6959
100 2 0.900445 0.317191 0.194333
101 2 0.501435 0.318473 0.597655
102 2 0.747719 0.442312 0.0977554
103 2 0.00363205 0.437402 0.407212
104 2 0.747076 0.315575 0.901072
105 2 0.594261 0.568196 0.0210427
106 2 0.661414 0.680322 0.507796
107 2 0.909448 0.683569 0.989781
108 2 0.838581 0.566966 0.488244
109 2 0.639561 0.560626 0.297299
110 2 0.605614 0.694666 0.79486
111 2 0.855952 0.683306 0.709681
112 2 0.890813 0.5637 0.208665
113 2 0.50094 0.565354 0.597164
114 2 0.74971 0.678517 0.0958667
115 2 0.00502912 0.68692 0.408765
116 2 0.752096 0.551942 0.902013
117 2 0.586432 0.80042 0.0160181
118 2 0.659288 0.946333 0.514684
119 2 0.921256 0.944005 0.983339
120 2 0.831572 0.813451 0.484313
121 2 0.657112 0.805512 0.291816
122 2 0.603662 0.944841 0.795521
123 2 0.846385 0.931835 0.69976
124 2 0.893741 0.820652 0.213234
125 2 0.509792 0.814405 0.589082
126 2 0.75303 0.948444 0.0885233
127 2 0.00354884 0.953915 0.404527
128 2 0.761498 0.810705 0.912302
129 3 0.0931116 0.068714 0.470886
130 3 0.156957 0.185241 0.947918
131 3 0.41655 0.192108 0.564898
132 3 0.333947 0.0564997 0.0480446
133 3 0.0935938 0.313459 0.451674
134 3 0.157135 0.439182 0.947537
135 3 0.411184 0.433063 0.546678
136 3 0.333673 0.308529 0.053863
137 3 0.0914278 0.561853 0.447125
138 3 0.160695 0.686538 0.950259
139 3 0.409388 0.68159 0.54984
140 3 0.339229 0.560737 0.0492214
141 3 0.0949085 0.811343 0.448313
142 3 0.158459 0.937527 0.953161
143 3 0.420301 0.940606 0.554113
144 3 0.339515 0.808273 0.0492911
145 3 0.598378 0.0709987 0.444624
146 3 0.662798 0.186555 0.941485
147 3 0.900238 0.189931 0.545659
148 3 0.836982 0.0671055 0.0368999
149 3 0.591769 0.308278 0.467939
150 3 0.660302 0.438506 0.960415
151 3 0.910001 0.440702 0.543715
152 3 0.838204 0.317546 0.0431008
153 3 0.585716 0.558132 0.455141
154 3 0.665482 0.6886 0.951953
155 3 0.913162 0.690203 0.546739
156 3 0.840768 0.558321 0.0467524
157 3 0.591493 0.806039 0.441986
158 3 0.661274 0.936354 0.950571
159 3 0.904328 0.942221 0.53853
160 3 0.842397 0.814903 0.0603553
ITEM: TIMESTEP
2000
ITEM: NUMBER OF ATOMS
160
ITEM: BOX BOUNDS xy xz yz pp pp pp
-1.1834115959863500e-01 2.1026266834814137e+01 1.6679214512918897e-01
5.3037534058586766e-01 1.8628567018906896e+01 -1.2726646991363003e-01
6.1074459205452569e-01 1.7150255407945497e+01 -3.0576405072167321e-03
ITEM: ATOMS id type xs ys zs
1 1 0.223953 0.0724648 0.677757
2 1 0.0401071 0.1939 0.18202
3 1 0.272977 0.176753 0.315567
4 1 0.466778 0.0522373 0.796904
5 1 0.209833 0.321971 0.698991
6 1 0.0474982 0.428607 0.196231
7 1 0.277957 0.43455 0.317797
8 1 0.462334 0.303821 0.818037
9 1 0.220213 0.567332 0.680194
10 1 0.0333058 0.695667 0.175247
11 1 0.278981 0.689166 0.318083
12 1 0.479378 0.562496 0.817863
13 1 0.211943 0.823428 0.669816
14 1 0.0416659 0.947699 0.177467
15 1 0.286369 0.927083 0.285437
16 1 0.475162 0.801951 0.797411
17 1 0.723969 0.0644152 0.707412
18 1 0.536613 0.192158 0.197916
19 1 0.768177 0.181539 0.326489
20 1 0.972498 0.064536 0.814704
21 1 0.718759 0.303744 0.699105
22 1 0.531842 0.430897 0.196788
23 1 0.780836 0.437681 0.310238
24 1 0.965864 0.317667 0.813604
25 1 0.72572 0.561309 0.67884
26 1 0.523408 0.695298 0.172786
27 1 0.772748 0.685409 0.304572
28 1 0.954022 0.559695 0.824285
29 1 0.71656 0.806602 0.693394
30 1 0.536473 0.954661 0.182175
31 1 0.787613 0.931824 0.334492
32 1 0.96048 0.799719 0.819515
33 2 0.0866818 0.0584589 0.0125279
34 2 0.161242 0.188927 0.504336
35 2 0.408935 0.188817 0.9709
36 2 0.344824 0.059452 0.477525
37 2 0.145108 0.064463 0.296349
38 2 0.101086 0.194492 0.791866
39 2 0.346866 0.194209 0.695335
40 2 0.402663 0.0671757 0.188897
41 2 0.00171723 0.0595458 0.594098
42 2 0.249442 0.186676 0.0889256
43 2 0.50331 0.189024 0.416753
44 2 0.247699 0.0677798 0.905012
45 2 0.0924135 0.311055 0.0166521
46 2 0.155313 0.441219 0.525541
47 2 0.417459 0.439481 0.972812
48 2 0.330602 0.31273 0.468395
49 2 0.151326 0.312025 0.310756
50 2 0.1012 0.43931 0.795241
51 2 0.350442 0.440476 0.715999
52 2 0.403463 0.316537 0.191025
53 2 0.9975 0.305262 0.599345
54 2 0.249832 0.435376 0.0951768
55 2 0.496371 0.430973 0.40971
56 2 0.243548 0.31498 0.898686
57 2 0.0947292 0.560413 0.026337
58 2 0.155047 0.69444 0.520009
59 2 0.410704 0.691783 0.956008
60 2 0.335331 0.570173 0.482405
61 2 0.150896 0.562601 0.297557
62 2 0.0873346 0.675252 0.806891
63 2 0.332666 0.691433 0.687128
64 2 0.408135 0.562854 0.191271
65 2 0.993949 0.558178 0.588638
66 2 0.266949 0.687687 0.0926437
67 2 0.506493 0.682738 0.406327
68 2 0.250553 0.565386 0.905586
69 2 0.0968935 0.816292 0.02785
70 2 0.170326 0.940877 0.502913
71 2 0.405672 0.951027 0.961436
72 2 0.350288 0.816273 0.464841
73 2 0.142613 0.801689 0.294141
74 2 0.101918 0.937158 0.791769
75 2 0.357752 0.941021 0.693417
76 2 0.400429 0.82809 0.182932
77 2 0.997918 0.805354 0.589012
78 2 0.246359 0.942952 0.0866955
79 2 0.504392 0.944223 0.403557
80 2 0.241912 0.807202 0.899338
81 2 0.593443 0.0673065 0.0292113
82 2 0.655064 0.188886 0.545896
83 2 0.907175 0.180519 0.976556
84 2 0.841106 0.0652165 0.486826
85 2 0.648402 0.0576299 0.306708
86 2 0.599328 0.186532 0.796731
87 2 0.853608 0.177372 0.71046
88 2 0.904671 0.0668684 0.206056
89 2 0.498949 0.0742534 0.597797
90 2 0.747469 0.182318 0.10525
91 2 0.993627 0.193548 0.407315
92 2 0.751889 0.0599794 0.91798
93 2 0.594518 0.304268 0.0243324
94 2 0.653208 0.441732 0.526487
95 2 0.914175 0.432161 0.993074
96 2 0.833104 0.313033 0.486954
97 2 0.645514 0.308909 0.315131
98 2 0.604079 0.442309 0.797819
99 2 0.85489 0.436458 0.698536
100 2 0.896951 0.310185 0.207344
101 2 0.482795 0.312963 0.604577
102 2 0.752049 0.435277 0.0975833
103 2 0.999005 0.43703 0.410684
104 2 0.748531 0.309251 0.904225
105 2 0.597251 0.56919 0.0108478
106 2 0.662164 0.678196 0.513005
107 2 0.913782 0.680165 0.996258
108 2 0.829917 0.557676 0.479234
109 2 0.649709 0.556969 0.300404
110 2 0.6117 0.688196 0.789177
111 2 0.849586 0.678535 0.696449
112 2 0.892574 0.554255 0.225917
113 2 0.490116 0.563441 0.589559
114 2 0.756688 0.685673 0.0979743
115 2 0.00109777 0.676615 0.393619
116 2 0.758135 0.552398 0.91117
117 2 0.589215 0.805498 0.0120138
118 2 0.659814 0.936828 0.514208
119 2 0.913083 0.928964 0.991404
120 2 0.848744 0.8131 0.469904
121 2 0.641929 0.819709 0.289474
122 2 0.602449 0.949422 0.797669
123 2 0.852915 0.933018 0.710961
124 2 0.89806 0.814689 0.213804
125 2 0.498544 0.813262 0.595561
126 2 0.74491 0.930172 0.10602
127 2 0.00310088 0.941771 0.410688
128 2 0.751159 0.814887 0.914748
129 3 0.0856432 0.064698 0.448612
130 3 0.1627 0.188311 0.946661
131 3 0.408426 0.192001 0.54189
132 3 0.340407 0.0711744 0.0419811
133 3 0.086197 0.316025 0.467048
134 3 0.160887 0.438155 0.953208
135 3 0.399798 0.442831 0.558224
136 3 0.336101 0.314543 0.0393317
137 3 0.0893147 0.568314 0.447564
138 3 0.161739 0.686864 0.953785
139 3 0.412543 0.690568 0.542909
140 3 0.345874 0.561185 0.0395088
141 3 0.0837709 0.81864 0.448199
142 3 0.161 0.941395 0.943559
143 3 0.420235 0.935955 0.542011
144 3 0.334957 0.817765 0.0317552
145 3 0.591423 0.0712545 0.458742
146 3 0.663972 0.186017 0.951308
147 3 0.905755 0.189486 0.556435
148 3 0.842996 0.0604598 0.0520244
149 3 0.582447 0.317167 0.474015
150 3 0.663137 0.432751 0.954169
151 3 0.908113 0.43431 0.543997
152 3 0.838658 0.308447 0.0536326
153 3 0.588666 0.558074 0.449779
154 3 0.67336 0.685514 0.95336
155 3 0.913065 0.676624 0.534661
156 3 0.840981 0.558517 0.0652413
157 3 0.58988 0.811514 0.448148
158 3 0.657039 0.938259 0.957599
159 3 0.91337 0.934304 0.552935
160 3 0.84206 0.810129 0.0568638
ITEM: TIMESTEP
2500
ITEM: NUMBER OF ATOMS
160
ITEM: BOX BOUNDS xy xz yz pp pp pp
4.3419871118251893e-02 2.0793377139033982e+01 -3.7379782646298834e-02
4.3743624275306536e-01 1.8674044333512203e+01 5.7767927986211564e-03
5.6251483082503384e-01 1.7198485169174983e+01 -5.0519423734730437e-02
ITEM: ATOMS id type xs ys zs
1 1 0.195177 0.0489323 0.695925
2 1 0.0312759 0.193075 0.178978
3 1 0.281134 0.190252 0.310589
4 1 0.477708 0.075532 0.801809
5 1 0.218961 0.310274 0.694203
6 1 0.025824 0.43451 0.199891
7 1 0.28374 0.437268 0.31868
8 1 0.459796 0.312687 0.79878
9 1 0.223255 0.588162 0.694212
10 1 0.0341964 0.678569 0.188104
11 1 0.284605 0.684787 0.312712
12 1 0.477896 0.56838 0.818658
13 1 0.227428 0.809624 0.689267
14 1 0.0233371 0.934603 0.198117
15 1 0.293261 0.954517 0.305561
16 1 0.472215 0.821316 0.830768
17 1 0.731536 0.0501455 0.688038
18 1 0.54511 0.17381 0.185313
19 1 0.787063 0.196777 0.321237
20 1 0.960771 0.0726033 0.81757
21 1 0.717077 0.302898 0.674277
22 1 0.538393 0.44038 0.172772
23 1 0.774037 0.440743 0.298722
24 1 0.960315 0.293555 0.817298
25 1 0.725486 0.560779 0.685502
26 1 0.537316 0.684016 0.188475
27 1 0.784905 0.693229 0.306921
28 1 0.961695 0.572672 0.802869
29 1 0.718607 0.82678 0.69045
30 1 0.537792 0.948384 0.189773
31 1 0.799587 0.939068 0.306773
32 1 0.960196 0.801878 0.820396
33 2 0.0779335 0.0571114 0.0270493
34 2 0.160158 0.185292 0.533334
35 2 0.410888 0.179815 0.971297
36 2 0.341394 0.0565424 0.474323
37 2 0.151998 0.0563892 0.303516
38 2 0.0994232 0.193762 0.796475
39 2 0.353754 0.183906 0.689323
40 2 0.40033 0.0620704 0.200419
41 2 0.00182235 0.0669813 0.596873
42 2 0.250862 0.189874 0.0871579
43 2 0.495775 0.180666 0.39519
44 2 0.241678 0.0566474 0.901409
45 2 0.0888524 0.312287 0.0272915
46 2 0.150211 0.440081 0.537821
47 2 0.40528 0.44095 0.971761
48 2 0.334755 0.313683 0.475042
49 2 0.153814 0.310936 0.303787
50 2 0.102008 0.430101 0.80803
51 2 0.349566 0.449853 0.704264
52 2 0.405965 0.306552 0.195899
53 2 0.992914 0.31311 0.59033
54 2 0.25374 0.430539 0.0950104
55 2 0.499681 0.435518 0.404388
56 2 0.249403 0.312151 0.904841
57 2 0.0879105 0.551564 0.0305787
58 2 0.166561 0.675112 0.518029
59 2 0.420649 0.69173 0.00617746
60 2 0.334119 0.559958 0.487894
61 2 0.152775 0.556525 0.300948
62 2 0.107796 0.680419 0.797786
63 2 0.362777 0.697834 0.715192
64 2 0.396575 0.566742 0.213372
65 2 0.990415 0.569846 0.588958
66 2 0.245264 0.693016 0.104506
67 2 0.504897 0.689137 0.413696
68 2 0.251727 0.56801 0.918083