ITEM: TIMESTEP
0
ITEM: NUMBER OF ATOMS
160
ITEM: BOX BOUNDS xy xz yz pp pp pp
7.7034003263389428e-01 1.6941659967366100e+01 0.0000000000000000e+00
5.7273400579719269e-01 1.6579265994202807e+01 0.0000000000000000e+00
9.6404741571496488e-01 2.3979952584285041e+01 0.0000000000000000e+00
ITEM: ATOMS id type xs ys zs
1 1 0.229975 0.252539 0.125
2 1 0.270025 0.247461 0.375
3 1 0.0200253 0.00253867 0.375
4 1 0.479975 0.497461 0.125
5 1 0.229975 0.252539 0.625
6 1 0.270025 0.247461 0.875
7 1 0.0200253 0.00253867 0.875
8 1 0.479975 0.497461 0.625
9 1 0.229975 0.752539 0.125
10 1 0.270025 0.747461 0.375
11 1 0.0200253 0.502539 0.375
12 1 0.479975 0.997461 0.125
13 1 0.229975 0.752539 0.625
14 1 0.270025 0.747461 0.875
15 1 0.0200253 0.502539 0.875
16 1 0.479975 0.997461 0.625
17 1 0.729975 0.252539 0.125
18 1 0.770025 0.247461 0.375
19 1 0.520025 0.00253867 0.375
20 1 0.979975 0.497461 0.125
21 1 0.729975 0.252539 0.625
22 1 0.770025 0.247461 0.875
23 1 0.520025 0.00253867 0.875
24 1 0.979975 0.497461 0.625
25 1 0.729975 0.752539 0.125
26 1 0.770025 0.747461 0.375
27 1 0.520025 0.502539 0.375
28 1 0.979975 0.997461 0.125
29 1 0.729975 0.752539 0.625
30 1 0.770025 0.747461 0.875
31 1 0.520025 0.502539 0.875
32 1 0.979975 0.997461 0.625
33 2 0.000575259 0.281007 0.125
34 2 0.499425 0.218993 0.375
35 2 0.249425 0.0310066 0.375
36 2 0.250575 0.468993 0.125
37 2 0.152678 0.348659 0.482123
38 2 0.347322 0.151341 0.0178769
39 2 0.0973215 0.0986593 0.0178769
40 2 0.402678 0.401341 0.482123
41 2 0.347322 0.151341 0.232123
42 2 0.152678 0.348659 0.267877
43 2 0.402678 0.401341 0.267877
44 2 0.0973215 0.0986593 0.232123
45 2 0.000575259 0.281007 0.625
46 2 0.499425 0.218993 0.875
47 2 0.249425 0.0310066 0.875
48 2 0.250575 0.468993 0.625
49 2 0.152678 0.348659 0.982123
50 2 0.347322 0.151341 0.517877
51 2 0.0973215 0.0986593 0.517877
52 2 0.402678 0.401341 0.982123
53 2 0.347322 0.151341 0.732123
54 2 0.152678 0.348659 0.767877
55 2 0.402678 0.401341 0.767877
56 2 0.0973215 0.0986593 0.732123
57 2 0.000575259 0.781007 0.125
58 2 0.499425 0.718993 0.375
59 2 0.249425 0.531007 0.375
60 2 0.250575 0.968993 0.125
61 2 0.152678 0.848659 0.482123
62 2 0.347322 0.651341 0.0178769
63 2 0.0973215 0.598659 0.0178769
64 2 0.402678 0.901341 0.482123
65 2 0.347322 0.651341 0.232123
66 2 0.152678 0.848659 0.267877
67 2 0.402678 0.901341 0.267877
68 2 0.0973215 0.598659 0.232123
69 2 0.000575259 0.781007 0.625
70 2 0.499425 0.718993 0.875
71 2 0.249425 0.531007 0.875
72 2 0.250575 0.968993 0.625
73 2 0.152678 0.848659 0.982123
74 2 0.347322 0.651341 0.517877
75 2 0.0973215 0.598659 0.517877
76 2 0.402678 0.901341 0.982123
77 2 0.347322 0.651341 0.732123
78 2 0.152678 0.848659 0.767877
79 2 0.402678 0.901341 0.767877
80 2 0.0973215 0.598659 0.732123
81 2 0.500575 0.281007 0.125
82 2 0.999425 0.218993 0.375
83 2 0.749425 0.0310066 0.375
84 2 0.750575 0.468993 0.125
85 2 0.652678 0.348659 0.482123
86 2 0.847322 0.151341 0.0178769
87 2 0.597322 0.0986593 0.0178769
88 2 0.902678 0.401341 0.482123
89 2 0.847322 0.151341 0.232123
90 2 0.652678 0.348659 0.267877
91 2 0.902678 0.401341 0.267877
92 2 0.597322 0.0986593 0.232123
93 2 0.500575 0.281007 0.625
94 2 0.999425 0.218993 0.875
95 2 0.749425 0.0310066 0.875
96 2 0.750575 0.468993 0.625
97 2 0.652678 0.348659 0.982123
98 2 0.847322 0.151341 0.517877
99 2 0.597322 0.0986593 0.517877
100 2 0.902678 0.401341 0.982123
101 2 0.847322 0.151341 0.732123
102 2 0.652678 0.348659 0.767877
103 2 0.902678 0.401341 0.767877
104 2 0.597322 0.0986593 0.732123
105 2 0.500575 0.781007 0.125
106 2 0.999425 0.718993 0.375
107 2 0.749425 0.531007 0.375
108 2 0.750575 0.968993 0.125
109 2 0.652678 0.848659 0.482123
110 2 0.847322 0.651341 0.0178769
111 2 0.597322 0.598659 0.0178769
112 2 0.902678 0.901341 0.482123
113 2 0.847322 0.651341 0.232123
114 2 0.652678 0.848659 0.267877
115 2 0.902678 0.901341 0.267877
116 2 0.597322 0.598659 0.232123
117 2 0.500575 0.781007 0.625
118 2 0.999425 0.718993 0.875
119 2 0.749425 0.531007 0.875
120 2 0.750575 0.968993 0.625
121 2 0.652678 0.848659 0.982123
122 2 0.847322 0.651341 0.517877
123 2 0.597322 0.598659 0.517877
124 2 0.902678 0.901341 0.982123
125 2 0.847322 0.651341 0.732123
126 2 0.652678 0.848659 0.767877
127 2 0.902678 0.901341 0.767877
128 2 0.597322 0.598659 0.732123
129 3 1 0.25 1
130 3 0.25 1 2.79264e-13
131 3 4.08928e-10 0.25 0.25
132 3 0.25 1 0.25
133 3 1.1045e-13 0.25 0.5
134 3 0.25 1 0.5
135 3 1 0.25 0.75
136 3 0.25 2.76412e-09 0.75
137 3 1 0.75 9.95857e-14
138 3 0.25 0.5 1
139 3 4.09387e-10 0.75 0.25
140 3 0.25 0.5 0.25
141 3 1.26296e-13 0.75 0.5
142 3 0.25 0.5 0.5
143 3 1 0.75 0.75
144 3 0.25 0.5 0.75
145 3 0.5 0.25 1
146 3 0.75 1.61146e-13 2.50095e-13
147 3 0.5 0.25 0.25
148 3 0.75 1 0.25
149 3 0.5 0.25 0.5
150 3 0.75 1 0.5
151 3 0.5 0.25 0.75
152 3 0.75 2.76402e-09 0.75
153 3 0.5 0.75 3.57582e-14
154 3 0.75 0.5 1
155 3 0.5 0.75 0.25
156 3 0.75 0.5 0.25
157 3 0.5 0.75 0.5
158 3 0.75 0.5 0.5
159 3 0.5 0.75 0.75
160 3 0.75 0.5 0.75
ITEM: TIMESTEP
500
ITEM: NUMBER OF ATOMS
160
ITEM: BOX BOUNDS xy xz yz pp pp pp
7.7034003263389428e-01 1.6941659967366100e+01 0.0000000000000000e+00
5.7273400579719269e-01 1.6579265994202807e+01 0.0000000000000000e+00
9.6404741571496488e-01 2.3979952584285041e+01 0.0000000000000000e+00
ITEM: ATOMS id type xs ys zs
1 1 0.229785 0.248257 0.122964
2 1 0.26564 0.235927 0.372817
3 1 0.00648952 0.00561418 0.376864
4 1 0.497533 0.51188 0.130318
5 1 0.232236 0.265732 0.61919
6 1 0.274334 0.235147 0.879691
7 1 0.0175634 0.998972 0.867641
8 1 0.476656 0.517776 0.620084
9 1 0.237174 0.756848 0.131232
10 1 0.264143 0.745472 0.373408
11 1 0.0235029 0.478028 0.371512
12 1 0.485723 0.993126 0.123084
13 1 0.240018 0.761357 0.637437
14 1 0.257607 0.736621 0.869708
15 1 0.00927049 0.483006 0.870549
16 1 0.493256 0.000324526 0.630734
17 1 0.752365 0.257034 0.131725
18 1 0.751771 0.241287 0.377855
19 1 0.508837 0.997626 0.380754
20 1 0.0045818 0.497489 0.132903
21 1 0.731338 0.252776 0.630356
22 1 0.766802 0.238521 0.875197
23 1 0.495794 0.996726 0.875392
24 1 0.978551 0.484869 0.623551
25 1 0.742987 0.76477 0.131328
26 1 0.76149 0.741778 0.367144
27 1 0.522223 0.504766 0.373705
28 1 0.982844 0.00331441 0.123726
29 1 0.744007 0.751687 0.620762
30 1 0.756723 0.754352 0.878406
31 1 0.515259 0.495159 0.873718
32 1 0.977073 0.0106836 0.619791
33 2 0.993958 0.257042 0.126276
34 2 0.50132 0.22709 0.375707
35 2 0.264331 0.0230106 0.377596
36 2 0.249686 0.478684 0.125426
37 2 0.14152 0.341926 0.477106
38 2 0.351769 0.145257 0.0170079
39 2 0.109751 0.105831 0.00456937
40 2 0.398586 0.394135 0.493732
41 2 0.361861 0.151235 0.239047
42 2 0.148497 0.348854 0.259418
43 2 0.40889 0.398686 0.253936
44 2 0.120999 0.110016 0.237182
45 2 0.993586 0.258734 0.621165
46 2 0.495728 0.236845 0.875586
47 2 0.252863 0.0112937 0.873867
48 2 0.238989 0.484462 0.621398
49 2 0.140787 0.354736 0.997427
50 2 0.351353 0.147592 0.516873
51 2 0.107473 0.10377 0.507544
52 2 0.39378 0.394936 0.989351
53 2 0.343333 0.159318 0.73598
54 2 0.152719 0.34692 0.76685
55 2 0.392134 0.402367 0.743637
56 2 0.0970156 0.105322 0.737887
57 2 0.0035207 0.770235 0.125426
58 2 0.507031 0.738722 0.375408
59 2 0.265715 0.513865 0.374073
60 2 0.245591 0.984286 0.126096
61 2 0.146945 0.843041 0.484677
62 2 0.347564 0.649342 0.00733389
63 2 0.0926285 0.594455 0.0145719
64 2 0.390567 0.900099 0.491423
65 2 0.360855 0.651981 0.232837
66 2 0.148583 0.85279 0.263894
67 2 0.39899 0.897458 0.259807
68 2 0.113081 0.597843 0.249043
69 2 0.988874 0.783036 0.626239
70 2 0.486413 0.730681 0.872628
71 2 0.242215 0.511489 0.87636
72 2 0.241761 0.979338 0.624335
73 2 0.149584 0.843076 0.991003
74 2 0.346526 0.652079 0.506434
75 2 0.0980034 0.594944 0.508311
76 2 0.393195 0.891404 0.987737
77 2 0.341815 0.649435 0.743008
78 2 0.138475 0.858892 0.765166
79 2 0.388715 0.899776 0.759979
80 2 0.0916618 0.605687 0.735841
81 2 0.515561 0.267643 0.122731
82 2 0.999332 0.230118 0.370933
83 2 0.763517 0.0152037 0.376748
84 2 0.760946 0.47501 0.124089
85 2 0.644262 0.353187 0.486126
86 2 0.855184 0.147981 0.0134357
87 2 0.599638 0.0876618 0.00886575
88 2 0.888752 0.392163 0.489037
89 2 0.863665 0.138261 0.241012
90 2 0.657722 0.348083 0.257512
91 2 0.910715 0.401419 0.257602
92 2 0.608354 0.102519 0.244804
93 2 0.503175 0.261342 0.624705
94 2 0.0170308 0.217044 0.873583
95 2 0.749596 0.0255349 0.878712
96 2 0.748656 0.480294 0.626097
97 2 0.655484 0.349157 0.990258
98 2 0.84921 0.148181 0.507503
99 2 0.596515 0.0952052 0.508079
100 2 0.897431 0.400615 0.991838
101 2 0.85093 0.162015 0.742871
102 2 0.64096 0.358235 0.761992
103 2 0.90816 0.399668 0.754375
104 2 0.59549 0.104198 0.741128
105 2 0.494647 0.771656 0.127156
106 2 0.996886 0.721009 0.375508
107 2 0.756869 0.514848 0.375575
108 2 0.752886 0.992509 0.121205
109 2 0.641566 0.85596 0.494125
110 2 0.848393 0.650899 0.0163761
111 2 0.603696 0.608095 0.0103007
112 2 0.893895 0.889174 0.48979
113 2 0.867962 0.642422 0.231268
114 2 0.647319 0.859417 0.252253
115 2 0.900311 0.89334 0.256136
116 2 0.619231 0.617104 0.238857
117 2 0.48525 0.771585 0.624021
118 2 0.995099 0.729464 0.875539
119 2 0.758672 0.519208 0.874641
120 2 0.742295 0.992123 0.630863
121 2 0.636921 0.850428 0.988787
122 2 0.851302 0.644229 0.508156
123 2 0.605128 0.612907 0.512184
124 2 0.897228 0.899152 0.994253
125 2 0.846322 0.65797 0.741275
126 2 0.63559 0.854175 0.763115
127 2 0.890674 0.911046 0.760603
128 2 0.602419 0.606635 0.73529
129 3 0.996535 0.250642 0.00436018
130 3 0.246944 0.991951 0.00325018
131 3 0.0024634 0.24488 0.25045
132 3 0.25885 0.998513 0.251601
133 3 0.993588 0.251249 0.497687
134 3 0.244294 0.999231 0.501444
135 3 0.00545497 0.25269 0.749702
136 3 0.241606 0.0104961 0.746466
137 3 0.997952 0.743706 0.00225228
138 3 0.241444 0.499741 0.00438824
139 3 0.0102922 0.749702 0.249717
140 3 0.261985 0.501183 0.249879
141 3 0.000660333 0.742097 0.502307
142 3 0.24895 0.49392 0.498039
143 3 0.992725 0.760535 0.75205
144 3 0.245999 0.497573 0.749531
145 3 0.502758 0.244263 0.000303221
146 3 0.749227 0.999412 0.996951
147 3 0.508147 0.247985 0.248906
148 3 0.754117 0.00123187 0.253316
149 3 0.500418 0.247372 0.499181
150 3 0.751774 0.99904 0.505603
151 3 0.494746 0.253115 0.75016
152 3 0.744368 0.012022 0.750415
153 3 0.493942 0.748018 0.99992
154 3 0.75483 0.503333 0.997853
155 3 0.507621 0.751803 0.249058
156 3 0.759432 0.50489 0.249869
157 3 0.494992 0.756108 0.499228
158 3 0.750372 0.504043 0.502051
159 3 0.495114 0.753987 0.74672
160 3 0.752234 0.501754 0.748718
ITEM: TIMESTEP
1000
ITEM: NUMBER OF ATOMS
160
ITEM: BOX BOUNDS xy xz yz pp pp pp
7.7034003263389428e-01 1.6941659967366100e+01 0.0000000000000000e+00
5.7273400579719269e-01 1.6579265994202807e+01 0.0000000000000000e+00
9.6404741571496488e-01 2.3979952584285041e+01 0.0000000000000000e+00
ITEM: ATOMS id type xs ys zs
1 1 0.234992 0.258529 0.129603
2 1 0.258543 0.246859 0.373541
3 1 0.017122 0.0155593 0.376094
4 1 0.489926 0.495788 0.130448
5 1 0.239551 0.253503 0.623367
6 1 0.250514 0.239535 0.869403
7 1 0.0200828 0.00734325 0.877166
8 1 0.490174 0.499191 0.627099
9 1 0.260772 0.768112 0.126532
10 1 0.258571 0.755295 0.374448
11 1 0.00289339 0.501221 0.375079
12 1 0.494197 0.982254 0.113632
13 1 0.237828 0.765383 0.627232
14 1 0.253052 0.734954 0.867632
15 1 0.98752 0.508491 0.877267
16 1 0.492994 0.987386 0.626259
17 1 0.738285 0.248495 0.115882
18 1 0.754579 0.234055 0.375973
19 1 0.491549 0.0151418 0.365011
20 1 0.989318 0.488783 0.125775
21 1 0.747601 0.248343 0.625
22 1 0.767815 0.248516 0.869405
23 1 0.503751 0.0291458 0.874403
24 1 0.987564 0.478319 0.627033
25 1 0.739201 0.751376 0.131
26 1 0.754707 0.759728 0.378727
27 1 0.507492 0.51049 0.378479
28 1 0.989527 0.987988 0.125078
29 1 0.761786 0.755388 0.631317
30 1 0.754947 0.757646 0.876845
31 1 0.526703 0.503929 0.882203
32 1 0.995031 0.999504 0.631655
33 2 0.992714 0.266479 0.12394
34 2 0.507439 0.238369 0.377532
35 2 0.25337 0.023644 0.377498
36 2 0.261717 0.466788 0.122536
37 2 0.141798 0.354016 0.491695
38 2 0.345166 0.145156 0.00770786
39 2 0.101499 0.0877687 0.00551293
40 2 0.390688 0.402356 0.492119
41 2 0.352038 0.149421 0.242119
42 2 0.15654 0.348823 0.26199
43 2 0.40448 0.409353 0.266656
44 2 0.109616 0.111139 0.240199
45 2 0.00908373 0.262865 0.622033
46 2 0.488941 0.238429 0.874849
47 2 0.236885 0.0152799 0.875836
48 2 0.248987 0.478992 0.625663
49 2 0.146267 0.351001 0.983765
50 2 0.345369 0.149157 0.50164
51 2 0.100826 0.0982978 0.507895
52 2 0.400827 0.400236 0.986453
53 2 0.355129 0.148338 0.734689
54 2 0.149965 0.352391 0.752662
55 2 0.402025 0.409903 0.764594
56 2 0.107077 0.0981006 0.748029
57 2 0.99348 0.767812 0.125156
58 2 0.486588 0.726695 0.37851
59 2 0.231288 0.527978 0.375254
60 2 0.257188 0.981979 0.126581
61 2 0.139376 0.852688 0.484141
62 2 0.354751 0.640976 0.00553632
63 2 0.101791 0.603976 0.0107561
64 2 0.399587 0.897182 0.486527
65 2 0.355162 0.642999 0.238919
66 2 0.148361 0.857208 0.260898
67 2 0.397744 0.890527 0.256733
68 2 0.107061 0.60846 0.233963
69 2 0.0090881 0.781347 0.629197
70 2 0.49248 0.715193 0.870847
71 2 0.232503 0.513 0.877506
72 2 0.257314 0.978167 0.627917
73 2 0.151612 0.848383 0.997611
74 2 0.345937 0.648113 0.504798
75 2 0.0969992 0.60135 0.511321
76 2 0.3981 0.89435 0.985923
77 2 0.354115 0.641936 0.735477
78 2 0.152897 0.853735 0.759637
79 2 0.417742 0.906582 0.764501
80 2 0.10427 0.60697 0.732852
81 2 0.506996 0.280992 0.12494
82 2 0.999178 0.222969 0.370453
83 2 0.736916 0.0198458 0.379624
84 2 0.752826 0.481694 0.122012
85 2 0.6493 0.346031 0.49623
86 2 0.855754 0.137362 0.00342084
87 2 0.598233 0.109596 0.0185052
88 2 0.89624 0.39687 0.491773
89 2 0.861931 0.13653 0.239116
90 2 0.652099 0.350351 0.261188
91 2 0.906293 0.396259 0.260631
92 2 0.596046 0.099476 0.237272
93 2 0.486807 0.28743 0.624573
94 2 0.994447 0.226357 0.875707
95 2 0.723989 0.0203794 0.878461
96 2 0.749862 0.474857 0.62296
97 2 0.654406 0.35033 0.986828
98 2 0.849959 0.143239 0.512507
99 2 0.59138 0.0959063 0.516699
100 2 0.886713 0.386733 0.993129
101 2 0.85521 0.13767 0.736358
102 2 0.644187 0.349512 0.762122
103 2 0.905201 0.389694 0.756546
104 2 0.604216 0.120427 0.736988
105 2 0.496371 0.76506 0.126386
106 2 0.998913 0.72825 0.372027
107 2 0.758967 0.526483 0.370817
108 2 0.761206 0.978968 0.123859
109 2 0.643373 0.848156 0.494617
110 2 0.850452 0.652707 0.999462
111 2 0.604107 0.602716 0.0145134
112 2 0.895176 0.899583 0.483055
113 2 0.848023 0.654424 0.245209
114 2 0.64845 0.852792 0.249229
115 2 0.892269 0.898847 0.270543
116 2 0.611012 0.596393 0.241289
117 2 0.487951 0.767854 0.626645
118 2 0.0182518 0.732308 0.874558
119 2 0.767372 0.513254 0.872978
120 2 0.770244 0.97745 0.629459
121 2 0.639308 0.857939 0.00204312
122 2 0.849634 0.650393 0.515326
123 2 0.590839 0.600352 0.510951
124 2 0.890797 0.901131 0.988297
125 2 0.865321 0.638959 0.73743
126 2 0.646255 0.851187 0.747887
127 2 0.896279 0.903364 0.769334
128 2 0.611567 0.60637 0.737741
129 3 0.99435 0.25082 0.00105398
130 3 0.250641 0.99436 0.000404818
131 3 0.00480316 0.247402 0.246794
132 3 0.251971 0.00208624 0.250128
133 3 0.00189979 0.25098 0.498413
134 3 0.248983 0.99592 0.500704
135 3 0.0107132 0.246595 0.750249
136 3 0.258531 0.999741 0.754883
137 3 0.00382684 0.755469 0.999938
138 3 0.246872 0.492366 0.000288314
139 3 0.000120741 0.751423 0.248596
140 3 0.252128 0.505948 0.256413
141 3 0.99427 0.750414 0.497824
142 3 0.242089 0.502002 0.499677
143 3 0.00065604 0.758526 0.749718
144 3 0.253592 0.500231 0.750856
145 3 0.492863 0.250075 0.0021143
146 3 0.744014 0.998727 0.00102865
147 3 0.499547 0.259122 0.248465
148 3 0.749314 0.00519497 0.253264
149 3 0.497422 0.253278 0.497732
150 3 0.751232 0.99921 0.504493
151 3 0.494094 0.258648 0.752147
152 3 0.746179 0.00156323 0.753618
153 3 0.496312 0.745133 0.994365
154 3 0.751016 0.501091 0.99794
155 3 0.506821 0.746182 0.252158
156 3 0.75989 0.498679 0.252271
157 3 0.495147 0.748904 0.501531
158 3 0.748334 0.499636 0.496712
159 3 0.504005 0.746941 0.74633
160 3 0.75288 0.484995 0.746813
ITEM: TIMESTEP
1500
ITEM: NUMBER OF ATOMS
160
ITEM: BOX BOUNDS xy xz yz pp pp pp
7.7034003263389428e-01 1.6941659967366100e+01 0.0000000000000000e+00
5.7273400579719269e-01 1.6579265994202807e+01 0.0000000000000000e+00
9.6404741571496488e-01 2.3979952584285041e+01 0.0000000000000000e+00
ITEM: ATOMS id type xs ys zs
1 1 0.230824 0.255876 0.11602
2 1 0.274032 0.258344 0.376501
3 1 0.0299323 0.993577 0.374506
4 1 0.458218 0.496843 0.125181
5 1 0.253423 0.266934 0.632332
6 1 0.262172 0.261687 0.872582
7 1 0.0310335 0.995489 0.876313
8 1 0.474335 0.509127 0.619498
9 1 0.223548 0.758709 0.116562
10 1 0.255925 0.747888 0.372933
11 1 0.0176991 0.51647 0.374542
12 1 0.480462 0.990872 0.119852
13 1 0.231024 0.753959 0.621209
14 1 0.269671 0.744962 0.88325
15 1 0.0238251 0.500393 0.875207
16 1 0.476565 0.000273038 0.630512
17 1 0.723499 0.254933 0.132281
18 1 0.776338 0.246666 0.378623
19 1 0.52285 0.0133798 0.36893
20 1 0.985818 0.50174 0.126534
21 1 0.730562 0.248881 0.620903
22 1 0.772828 0.249436 0.880133
23 1 0.523941 0.0127032 0.887697
24 1 0.98904 0.497942 0.624017
25 1 0.728507 0.75881 0.125496
26 1 0.759589 0.753189 0.373514
27 1 0.512397 0.485428 0.371653
28 1 0.96641 0.00601721 0.124348
29 1 0.72827 0.740756 0.626601
30 1 0.782477 0.746855 0.879298
31 1 0.518837 0.488647 0.878723
32 1 0.9572 0.998303 0.618289
33 2 0.998334 0.275636 0.121981
34 2 0.50668 0.230359 0.375262
35 2 0.238001 0.0394585 0.375708
36 2 0.237279 0.47749 0.129905
37 2 0.149057 0.350408 0.482602
38 2 0.351306 0.148829 0.0127127
39 2 0.112473 0.103433 0.0187021
40 2 0.398884 0.396937 0.488078
41 2 0.355328 0.154715 0.241597
42 2 0.137723 0.355259 0.269981
43 2 0.380663 0.387427 0.259051
44 2 0.109088 0.108201 0.238841
45 2 0.00296998 0.273614 0.619458
46 2 0.492454 0.223404 0.877096
47 2 0.250695 0.0228433 0.876707
48 2 0.260219 0.48166 0.627413
49 2 0.141414 0.348889 0.988739
50 2 0.345868 0.159879 0.511329
51 2 0.100506 0.0911411 0.512639
52 2 0.395122 0.401998 0.996424
53 2 0.358808 0.151602 0.740782
54 2 0.150468 0.356477 0.763524
55 2 0.399337 0.402259 0.756978
56 2 0.113302 0.110341 0.732892
57 2 0.00643655 0.784801 0.126151
58 2 0.501757 0.707501 0.374509
59 2 0.25369 0.526507 0.377217
60 2 0.268016 0.966393 0.12654
61 2 0.15677 0.847602 0.484345
62 2 0.350134 0.63388 0.0222469
63 2 0.0916381 0.599003 0.0104674
64 2 0.393229 0.899712 0.484439
65 2 0.345992 0.648736 0.235236
66 2 0.137467 0.861141 0.26786
67 2 0.387427 0.892549 0.271921
68 2 0.0984891 0.60713 0.241499
69 2 0.0113421 0.784479 0.626773
70 2 0.484797 0.716509 0.876345
71 2 0.242927 0.5318 0.877617
72 2 0.259217 0.970584 0.627844
73 2 0.149579 0.858175 0.985792
74 2 0.348322 0.643336 0.516066
75 2 0.100165 0.605634 0.510649
76 2 0.396587 0.890965 0.98389
77 2 0.355959 0.646468 0.738263
78 2 0.164324 0.843921 0.764263
79 2 0.411654 0.906138 0.761255
80 2 0.10183 0.603965 0.7389
81 2 0.511507 0.273451 0.125035
82 2 0.988377 0.206156 0.374607
83 2 0.74771 0.0292357 0.373065
84 2 0.751209 0.46307 0.125043
85 2 0.651605 0.348328 0.480014
86 2 0.855917 0.142433 0.0182453
87 2 0.606893 0.110441 0.0106913
88 2 0.907933 0.396082 0.488139
89 2 0.854293 0.146386 0.233026
90 2 0.641689 0.362388 0.27044
91 2 0.887824 0.388772 0.267655
92 2 0.600286 0.104469 0.233527
93 2 0.515211 0.270272 0.620622
94 2 0.00967511 0.217792 0.874789
95 2 0.750034 0.0294149 0.875958
96 2 0.74858 0.457723 0.627076
97 2 0.639766 0.355541 0.979752
98 2 0.848206 0.147679 0.516778
99 2 0.598055 0.0994766 0.506219
100 2 0.886674 0.389305 0.979652
101 2 0.856121 0.145953 0.732531
102 2 0.648934 0.35095 0.777594
103 2 0.899789 0.388297 0.761095
104 2 0.609559 0.105874 0.737
105 2 0.511656 0.776733 0.123713
106 2 0.989889 0.737636 0.374019
107 2 0.778341 0.535899 0.374625
108 2 0.737681 0.966541 0.121876
109 2 0.644134 0.851651 0.488491
110 2 0.856994 0.649747 0.0207036
111 2 0.605994 0.599136 0.00873139
112 2 0.896824 0.901193 0.489755
113 2 0.856091 0.647592 0.226106
114 2 0.642181 0.851144 0.263298
115 2 0.890113 0.903356 0.255989
116 2 0.595068 0.594494 0.226504
117 2 0.509062 0.771278 0.628229
118 2 0.999732 0.732095 0.873976
119 2 0.761292 0.534228 0.873662
120 2 0.737209 0.97047 0.625458
121 2 0.631755 0.851032 0.978873
122 2 0.857813 0.654243 0.526029
123 2 0.601241 0.607535 0.514889
124 2 0.895209 0.898587 0.987745
125 2 0.859894 0.638376 0.723711
126 2 0.651676 0.845977 0.770423
127 2 0.903028 0.901748 0.7594
128 2 0.609774 0.601437 0.737375
129 3 0.996919 0.251129 0.999074
130 3 0.258649 0.000183148 0.00148326
131 3 0.993666 0.248929 0.246958
132 3 0.252005 0.0059865 0.252494
133 3 0.00678344 0.243055 0.499039
134 3 0.251968 0.000904874 0.499028
135 3 0.0029494 0.247559 0.742722
136 3 0.253506 0.000345418 0.750917
137 3 0.998691 0.750351 0.00098973
138 3 0.248261 0.490161 0.998282
139 3 0.994547 0.75623 0.2475
140 3 0.243877 0.50036 0.251171
141 3 0.000720113 0.753452 0.501303
142 3 0.242928 0.495229 0.497098
143 3 0.00478996 0.755484 0.749674
144 3 0.251504 0.497751 0.752885
145 3 0.500814 0.253614 0.00287188
146 3 0.747548 0.998754 0.000405333
147 3 0.498642 0.25294 0.247683
148 3 0.74419 0.00155355 0.247867
149 3 0.501748 0.249901 0.498103
150 3 0.746448 0.999546 0.500508
151 3 0.508054 0.255496 0.748422
152 3 0.749332 0.999196 0.749984
153 3 0.494814 0.744551 0.00230463
154 3 0.749784 0.499843 0.00114249
155 3 0.498012 0.7436 0.248732
156 3 0.746868 0.506115 0.249376
157 3 0.490027 0.742471 0.500413
158 3 0.757249 0.491249 0.500447
159 3 0.499953 0.745642 0.749739
160 3 0.757222 0.494491 0.75215
ITEM: TIMESTEP
2000
ITEM: NUMBER OF ATOMS
160
ITEM: BOX BOUNDS xy xz yz pp pp pp
7.7034003263389428e-01 1.6941659967366100e+01 0.0000000000000000e+00
5.7273400579719269e-01 1.6579265994202807e+01 0.0000000000000000e+00
9.6404741571496488e-01 2.3979952584285041e+01 0.0000000000000000e+00
ITEM: ATOMS id type xs ys zs
1 1 0.234023 0.24198 0.120239
2 1 0.261404 0.242377 0.380785
3 1 0.0145694 0.984487 0.377583
4 1 0.479312 0.497831 0.118777
5 1 0.229424 0.233508 0.623732
6 1 0.260644 0.264327 0.875212
7 1 0.00923093 0.990615 0.873656
8 1 0.501676 0.483869 0.631914
9 1 0.237566 0.746401 0.113503
10 1 0.269199 0.750217 0.3714
11 1 0.00223455 0.519197 0.381481
12 1 0.496865 0.0138791 0.128504
13 1 0.239863 0.746903 0.626712
14 1 0.254357 0.749108 0.878326
15 1 0.00298918 0.495261 0.874177
16 1 0.489463 0.986647 0.625787
17 1 0.731027 0.250021 0.128402
18 1 0.749063 0.239664 0.373853
19 1 0.492454 0.00531722 0.373688
20 1 0.985269 0.493674 0.120541
21 1 0.744322 0.248681 0.625664
22 1 0.766676 0.25252 0.874327
23 1 0.518458 0.00562979 0.876673
24 1 0.981607 0.493691 0.621563
25 1 0.731229 0.74551 0.112597
26 1 0.771422 0.751732 0.382437
27 1 0.513592 0.495717 0.37551
28 1 0.980397 0.00583736 0.135139
29 1 0.729934 0.744522 0.620694
30 1 0.764124 0.755339 0.87384
31 1 0.515045 0.505897 0.87722
32 1 0.971089 0.994879 0.630496
33 2 0.00388315 0.273219 0.123574
34 2 0.50572 0.225862 0.373984
35 2 0.256328 0.0195819 0.374127
36 2 0.255781 0.467017 0.126654
37 2 0.151005 0.356174 0.485617
38 2 0.347994 0.1487 0.0121136
39 2 0.104048 0.101124 0.0182862
40 2 0.407166 0.408812 0.481932
41 2 0.348186 0.139537 0.238292
42 2 0.162662 0.340559 0.263785
43 2 0.39031 0.390818 0.27182
44 2 0.0980655 0.100366 0.241015
45 2 0.996464 0.276544 0.623682
46 2 0.489708 0.232633 0.873057
47 2 0.252725 0.027687 0.878388
48 2 0.258344 0.489713 0.620517
49 2 0.151138 0.348677 0.989465
50 2 0.35457 0.149962 0.508813
51 2 0.0997116 0.09772 0.511794
52 2 0.399863 0.402442 0.990216
53 2 0.34146 0.158885 0.742495
54 2 0.152015 0.355199 0.763796
55 2 0.40528 0.406822 0.764812
56 2 0.0982273 0.0971552 0.740143
57 2 0.000924915 0.77574 0.124648
58 2 0.496916 0.728965 0.373846
59 2 0.250638 0.530916 0.371935
60 2 0.255457 0.974318 0.122209
61 2 0.159435 0.854715 0.493309
62 2 0.352434 0.644971 0.0108088
63 2 0.10929 0.60489 0.018286
64 2 0.406491 0.90665 0.494657
65 2 0.347761 0.655054 0.23406
66 2 0.14414 0.859237 0.27292
67 2 0.396378 0.8957 0.259979
68 2 0.101748 0.605444 0.235054
69 2 0.00375112 0.773601 0.626634
70 2 0.498593 0.715921 0.876559
71 2 0.248871 0.523196 0.874374
72 2 0.256663 0.994168 0.624465
73 2 0.135669 0.856186 0.991108
74 2 0.36063 0.650561 0.505835
75 2 0.102521 0.606071 0.515979
76 2 0.397932 0.898369 0.990003
77 2 0.33916 0.662197 0.743961
78 2 0.150119 0.856396 0.762947
79 2 0.408498 0.91064 0.76107
80 2 0.0990995 0.598305 0.731562
81 2 0.496932 0.28268 0.125511
82 2 0.00758984 0.231077 0.374578
83 2 0.756905 0.021911 0.373558
84 2 0.746977 0.4731 0.129103
85 2 0.647026 0.358974 0.491249
86 2 0.862119 0.143116 0.00286114
87 2 0.601627 0.108403 0.00854383
88 2 0.907647 0.410001 0.492324
89 2 0.852403 0.153017 0.232688
90 2 0.640171 0.354494 0.257507
91 2 0.907911 0.401812 0.263039
92 2 0.59685 0.105584 0.244064
93 2 0.481249 0.269126 0.628061
94 2 0.0174053 0.240999 0.873754
95 2 0.739329 0.0345571 0.871047
96 2 0.738594 0.472378 0.626566
97 2 0.646806 0.356052 0.991423
98 2 0.860628 0.15254 0.513771
99 2 0.602517 0.100282 0.510837
100 2 0.89887 0.393082 0.986393
101 2 0.855998 0.145738 0.736019
102 2 0.645388 0.356108 0.762116
103 2 0.885148 0.397176 0.755855
104 2 0.603503 0.106819 0.734894
105 2 0.507217 0.769303 0.123753
106 2 0.000246123 0.730176 0.373047
107 2 0.764943 0.503748 0.378355
108 2 0.739515 0.974322 0.122295
109 2 0.650263 0.847395 0.484008
110 2 0.857162 0.638024 0.00976542
111 2 0.600692 0.603261 0.0170949
112 2 0.900527 0.899469 0.490726
113 2 0.853091 0.639682 0.239121
114 2 0.642601 0.862585 0.265931
115 2 0.902369 0.900991 0.257755
116 2 0.602637 0.594043 0.239663
117 2 0.505641 0.753478 0.626063
118 2 0.010849 0.718011 0.878265
119 2 0.757803 0.51643 0.875727
120 2 0.740683 0.975947 0.621637
121 2 0.638708 0.855632 0.982458
122 2 0.856918 0.64888 0.511171
123 2 0.611365 0.60887 0.51
124 2 0.899939 0.891513 0.987262
125 2 0.848997 0.645887 0.732067
126 2 0.640802 0.844487 0.769807
127 2 0.90088 0.897794 0.761852
128 2 0.59032 0.593305 0.743198
129 3 0.00700121 0.252578 0.998333
130 3 0.257346 0.99729 0.998496
131 3 0.00200388 0.249573 0.249292
132 3 0.246493 0.994001 0.248415
133 3 0.00742418 0.253965 0.499158
134 3 0.255432 0.00317398 0.500815
135 3 0.999667 0.253933 0.745031
136 3 0.253141 0.00151573 0.750099
137 3 0.999589 0.747911 0.000591271
138 3 0.248295 0.497358 0.00351921
139 3 0.996914 0.748507 0.248466
140 3 0.246749 0.498909 0.249447
141 3 0.00790473 0.751056 0.500031
142 3 0.251353 0.498565 0.498422
143 3 0.999836 0.743006 0.753515
144 3 0.24602 0.498732 0.747856
145 3 0.494285 0.251161 0.00152088
146 3 0.745027 0.00703382 0.994874
147 3 0.494708 0.253306 0.248007
148 3 0.751224 0.998301 0.248351
149 3 0.50531 0.255452 0.500432
150 3 0.750695 0.000272518 0.499423
151 3 0.496319 0.261775 0.748618
152 3 0.741471 0.991598 0.748652
153 3 0.498831 0.748499 0.00279367
154 3 0.752657 0.49465 0.00118949
155 3 0.500821 0.747917 0.244819
156 3 0.750785 0.49673 0.253132
157 3 0.502547 0.748745 0.500975
158 3 0.752636 0.498531 0.501042
159 3 0.492333 0.747906 0.751932
160 3 0.743513 0.500679 0.746583
ITEM: TIMESTEP
2500
ITEM: NUMBER OF ATOMS
160
ITEM: BOX BOUNDS xy xz yz pp pp pp
7.7034003263389428e-01 1.6941659967366100e+01 0.0000000000000000e+00
5.7273400579719269e-01 1.6579265994202807e+01 0.0000000000000000e+00
9.6404741571496488e-01 2.3979952584285041e+01 0.0000000000000000e+00
ITEM: ATOMS id type xs ys zs
1 1 0.249705 0.255102 0.133343
2 1 0.254467 0.251629 0.377832
3 1 0.995465 0.983266 0.381018
4 1 0.490098 0.502557 0.132028
5 1 0.259898 0.262539 0.620565
6 1 0.251283 0.25019 0.876709
7 1 0.00464384 0.0042837 0.872504
8 1 0.491965 0.502806 0.626282
9 1 0.235248 0.744546 0.124644
10 1 0.267658 0.748612 0.377582
11 1 0.0127305 0.508828 0.373897
12 1 0.485438 0.018947 0.121745
13 1 0.246578 0.756113 0.62517
14 1 0.264615 0.731356 0.880607
15 1 0.0202478 0.494735 0.878939
16 1 0.505562 0.993585 0.629522
17 1 0.750865 0.260652 0.115558
18 1 0.753633 0.247684 0.374437
19 1 0.498966 0.0106749 0.3743
20 1 0.00225655 0.48924 0.11869
21 1 0.753254 0.266578 0.628569
22 1 0.743632 0.244466 0.874398
23 1 0.509397 0.0116077 0.875533
24 1 0.00196495 0.481875 0.62737
25 1 0.755826 0.756064 0.120716
26 1 0.758992 0.730855 0.38349
27 1 0.508246 0.502528 0.364988
28 1 0.00154858 0.989771 0.122052
29 1 0.744262 0.754917 0.617239
30 1 0.739725 0.7434 0.867252
31 1 0.512456 0.514282 0.879
32 1 0.995219 0.992455 0.619041
33 2 0.99968 0.268714 0.128434
34 2 0.482653 0.228019 0.37574
35 2 0.256478 0.0167164 0.374447
36 2 0.243154 0.481857 0.121443
37 2 0.148419 0.347987 0.489096
38 2 0.347307 0.155575 0.0181006
39 2 0.106324 0.099449 0.0136923
40 2 0.397828 0.39994 0.489089
41 2 0.349831 0.155153 0.233251
42 2 0.155582 0.341153 0.266273
43 2 0.399718 0.396866 0.26025
44 2 0.0997439 0.0975937 0.23281
45 2 0.988388 0.261902 0.627352
46 2 0.482977 0.233058 0.877202
47 2 0.234241 0.0361779 0.879118
48 2 0.251723 0.477246 0.622856
49 2 0.152864 0.345393 0.993659
50 2 0.346349 0.145683 0.50844
51 2 0.103944 0.104794 0.512151
52 2 0.406365 0.418382 0.994915
53 2 0.339498 0.162613 0.738073
54 2 0.148041 0.34831 0.752641
55 2 0.399772 0.404559 0.758951
56 2 0.092657 0.0941215 0.736004
57 2 0.00713904 0.77189 0.122405
58 2 0.499601 0.738672 0.37433
59 2 0.245344 0.512822 0.367158
60 2 0.252618 0.958608 0.125692
61 2 0.151403 0.843685 0.484383
62 2 0.35198 0.655037 0.0114774
63 2 0.109787 0.600454 0.00925554
64 2 0.399213 0.903841 0.49434
65 2 0.361956 0.643312 0.23365
66 2 0.15073 0.849636 0.267624
67 2 0.41134 0.905682 0.25936
68 2 0.0981884 0.593135 0.237046
69 2 0.0164886 0.77467 0.624289
70 2 0.490947 0.730362 0.876076
71 2 0.247831 0.510746 0.875431
72 2 0.249645 0.982065 0.62752
73 2 0.151997 0.844291 0.98605
74 2 0.346689 0.653878 0.509032
75 2 0.0985017 0.5998 0.511874
76 2 0.405671 0.909022 0.984587
77 2 0.341159 0.65828 0.743117
78 2 0.139214 0.848388 0.768247
79 2 0.389522 0.904245 0.763635
80 2 0.102058 0.58965 0.742482
81 2 0.512839 0.276521 0.124542
82 2 0.0135705 0.214313 0.374143
83 2 0.771735 0.0191139 0.373463
84 2 0.768243 0.469266 0.126911