ITEM: TIMESTEP
0
ITEM: NUMBER OF ATOMS
160
ITEM: BOX BOUNDS xy xz yz pp pp pp
8.8535171135816348e-01 1.6826648288641827e+01 0.0000000000000000e+00
4.0104672771464506e-01 1.6750953272285358e+01 0.0000000000000000e+00
9.4288034741806370e-01 2.4001119652581934e+01 0.0000000000000000e+00
ITEM: ATOMS id type xs ys zs
1 1 0.256307 0.24658 0.12866
2 1 0.242777 0.263738 0.374877
3 1 0.999603 0.996656 0.375132
4 1 0.498696 0.506746 0.127702
5 1 0.252554 0.249477 0.636383
6 1 0.255167 0.249435 0.877432
7 1 0.996014 0.996278 0.876146
8 1 0.487448 0.500523 0.623773
9 1 0.251306 0.742823 0.119708
10 1 0.256641 0.755948 0.365075
11 1 0.999571 0.501855 0.370658
12 1 0.506384 0.000508363 0.122721
13 1 0.246159 0.759803 0.62795
14 1 0.246991 0.744821 0.87261
15 1 0.00354063 0.503527 0.869005
16 1 0.494773 0.00114479 0.627255
17 1 0.75561 0.253238 0.129884
18 1 0.752166 0.245369 0.384777
19 1 0.498046 0.011489 0.376205
20 1 0.998988 0.503024 0.121723
21 1 0.748648 0.242103 0.626389
22 1 0.753474 0.242714 0.875053
23 1 0.506302 0.0127007 0.880237
24 1 0.996033 0.494135 0.622141
25 1 0.743944 0.742755 0.128095
26 1 0.750598 0.749039 0.376916
27 1 0.513841 0.506887 0.373905
28 1 0.00330086 0.00241301 0.125249
29 1 0.742545 0.74686 0.630153
30 1 0.758628 0.739504 0.877283
31 1 0.511794 0.50108 0.872851
32 1 0.995633 0.989833 0.628242
33 2 0.00674376 0.24877 0.124241
34 2 0.497314 0.249571 0.374163
35 2 0.248453 0.00921431 0.36888
36 2 0.241595 0.501989 0.122635
37 2 0.116413 0.376599 0.492822
38 2 0.372885 0.137545 0.00392701
39 2 0.118767 0.11835 0.999725
40 2 0.368608 0.366125 0.502083
41 2 0.380758 0.118846 0.251192
42 2 0.12461 0.37652 0.245868
43 2 0.373348 0.378651 0.240829
44 2 0.123128 0.131535 0.248189
45 2 0.998745 0.243173 0.627528
46 2 0.499239 0.255707 0.873973
47 2 0.245685 0.00258498 0.868878
48 2 0.257571 0.483921 0.622574
49 2 0.13437 0.36696 0.000124926
50 2 0.370497 0.125641 0.494592
51 2 0.125498 0.131246 0.493196
52 2 0.381333 0.383312 0.00614896
53 2 0.374274 0.115109 0.748149
54 2 0.127977 0.375031 0.750613
55 2 0.386535 0.380253 0.756504
56 2 0.118737 0.120487 0.747045
57 2 0.993686 0.747329 0.127251
58 2 0.498656 0.740066 0.372282
59 2 0.251417 0.508026 0.372351
60 2 0.254193 0.00119675 0.123415
61 2 0.126701 0.87262 0.500203
62 2 0.371867 0.625651 0.994695
63 2 0.114637 0.618043 0.000812082
64 2 0.374135 0.874948 0.503046
65 2 0.379318 0.631844 0.238748
66 2 0.117808 0.887948 0.247122
67 2 0.365812 0.87582 0.244017
68 2 0.122174 0.634833 0.251768
69 2 0.000810852 0.742322 0.629923
70 2 0.502134 0.747494 0.87669
71 2 0.254085 0.499415 0.874208
72 2 0.240928 0.997504 0.623386
73 2 0.118554 0.876842 0.999377
74 2 0.369772 0.62925 0.500983
75 2 0.124794 0.619868 0.496284
76 2 0.366821 0.875389 0.996796
77 2 0.372286 0.626213 0.74867
78 2 0.126649 0.867404 0.744939
79 2 0.375307 0.871637 0.750624
80 2 0.129546 0.621439 0.752852
81 2 0.504664 0.247486 0.122503
82 2 0.991937 0.259069 0.375702
83 2 0.756029 0.99723 0.377975
84 2 0.748446 0.510391 0.125948
85 2 0.617238 0.378827 0.501058
86 2 0.88157 0.121218 0.995493
87 2 0.62899 0.130205 0.00285967
88 2 0.869029 0.367067 0.509243
89 2 0.868854 0.128643 0.252387
90 2 0.630542 0.374363 0.248418
91 2 0.883014 0.385754 0.246964
92 2 0.628952 0.128374 0.249004
93 2 0.499604 0.243878 0.624837
94 2 0.00485756 0.248166 0.874691
95 2 0.747199 0.999144 0.876493
96 2 0.75023 0.50493 0.629224
97 2 0.628523 0.381761 0.00113707
98 2 0.8738 0.125232 0.50118
99 2 0.630211 0.127565 0.500828
100 2 0.870673 0.372803 0.00330997
101 2 0.870476 0.119436 0.752675
102 2 0.63102 0.366243 0.749598
103 2 0.881357 0.374485 0.744289
104 2 0.624734 0.119908 0.745981
105 2 0.494581 0.745921 0.124006
106 2 0.00340208 0.759884 0.377811
107 2 0.760821 0.48301 0.379317
108 2 0.749519 0.0106219 0.123976
109 2 0.61847 0.881107 0.498568
110 2 0.869602 0.629444 0.999464
111 2 0.623951 0.620073 0.00795708
112 2 0.87899 0.870722 0.508608
113 2 0.882238 0.62622 0.255382
114 2 0.623042 0.883605 0.260886
115 2 0.871235 0.876679 0.248665
116 2 0.630983 0.629938 0.252975
117 2 0.493006 0.74318 0.626856
118 2 0.00366779 0.752094 0.877371
119 2 0.756761 0.491746 0.87402
120 2 0.746802 0.00270586 0.625667
121 2 0.62067 0.880573 0.996945
122 2 0.873223 0.625909 0.503626
123 2 0.621 0.625844 0.500425
124 2 0.873467 0.878211 0.998701
125 2 0.880773 0.617696 0.756406
126 2 0.62284 0.873141 0.747966
127 2 0.874772 0.867646 0.75542
128 2 0.622824 0.617668 0.744906
129 3 0.00402946 0.246876 0.999562
130 3 0.249444 0.00151406 0.993981
131 3 0.994509 0.250971 0.24965
132 3 0.246683 0.00383133 0.244703
133 3 0.994104 0.250888 0.499769
134 3 0.246889 0.00245503 0.495853
135 3 0.000596719 0.24723 0.753113
136 3 0.247225 0.991743 0.74736
137 3 0.999164 0.747441 0.998468
138 3 0.246321 0.498552 0.998245
139 3 0.994137 0.760037 0.251915
140 3 0.249402 0.512392 0.248021
141 3 0.00418564 0.74865 0.506839
142 3 0.253007 0.499384 0.498444
143 3 0.00496067 0.741203 0.750173
144 3 0.25846 0.499914 0.750938
145 3 0.505367 0.253887 0.00170327
146 3 0.750041 0.000628574 0.999318
147 3 0.497818 0.249565 0.247124
148 3 0.747872 0.00292231 0.250357
149 3 0.499742 0.250348 0.499127
150 3 0.754554 0.997851 0.50366
151 3 0.500066 0.241312 0.743711
152 3 0.749464 0.993709 0.752126
153 3 0.501503 0.750445 0.000399099
154 3 0.748225 0.504352 0.00129043
155 3 0.501446 0.756175 0.246702
156 3 0.754519 0.504138 0.249827
157 3 0.499039 0.752894 0.501808
158 3 0.748263 0.499605 0.501848
159 3 0.503896 0.744839 0.752072
160 3 0.752307 0.494739 0.751092
ITEM: TIMESTEP
500
ITEM: NUMBER OF ATOMS
160
ITEM: BOX BOUNDS xy xz yz pp pp pp
8.9435984664903134e-01 1.6870461549248656e+01 -2.0726798896794730e-02
6.4128670412416267e-01 1.6658161064952456e+01 7.3548194794548563e-02
1.2509600065056572e+00 2.3693039993494295e+01 1.4744776907662327e-01
ITEM: ATOMS id type xs ys zs
1 1 0.257999 0.251486 0.12926
2 1 0.240671 0.244814 0.376842
3 1 0.995317 0.00713846 0.373119
4 1 0.507588 0.499588 0.12782
5 1 0.254935 0.250997 0.628518
6 1 0.247833 0.242009 0.880493
7 1 0.995903 0.999754 0.877544
8 1 0.499865 0.50163 0.622169
9 1 0.249565 0.74798 0.12578
10 1 0.249451 0.758757 0.373675
11 1 0.000701248 0.502756 0.380334
12 1 0.507559 0.00295686 0.125497
13 1 0.254313 0.753464 0.62687
14 1 0.252899 0.741897 0.880915
15 1 0.999966 0.495848 0.872501
16 1 0.499005 0.999177 0.628005
17 1 0.757691 0.252399 0.121538
18 1 0.745178 0.252627 0.376881
19 1 0.495495 0.00279798 0.372468
20 1 0.995112 0.500388 0.11959
21 1 0.744348 0.253887 0.625705
22 1 0.752397 0.242082 0.873865
23 1 0.499902 0.00170291 0.874225
24 1 0.996448 0.485568 0.623237
25 1 0.749273 0.754755 0.12303
26 1 0.749257 0.754639 0.374585
27 1 0.493586 0.502237 0.379365
28 1 0.00262968 0.000267595 0.127981
29 1 0.755131 0.751421 0.623133
30 1 0.746292 0.754405 0.870145
31 1 0.501103 0.50074 0.87503
32 1 0.00616424 0.998945 0.623263
33 2 0.00670596 0.246046 0.126609
34 2 0.494052 0.252087 0.375622
35 2 0.253604 0.00896006 0.378238
36 2 0.235409 0.504696 0.127195
37 2 0.123198 0.373999 0.501902
38 2 0.383033 0.117952 0.00732236
39 2 0.117682 0.12138 0.999782
40 2 0.377877 0.377991 0.49677
41 2 0.381718 0.121835 0.247165
42 2 0.128116 0.373933 0.243951
43 2 0.382167 0.385462 0.255579
44 2 0.129178 0.126008 0.247262
45 2 0.00748537 0.244392 0.625413
46 2 0.499187 0.25444 0.876793
47 2 0.24937 0.00214098 0.877063
48 2 0.265308 0.481141 0.625367
49 2 0.122812 0.373545 0.00101258
50 2 0.369916 0.129911 0.505327
51 2 0.124058 0.129283 0.499423
52 2 0.366701 0.369528 0.0041312
53 2 0.376973 0.123846 0.753537
54 2 0.1229 0.366597 0.747344
55 2 0.378323 0.372212 0.756658
56 2 0.126827 0.123051 0.755291
57 2 0.989253 0.748506 0.122509
58 2 0.508773 0.742951 0.376586
59 2 0.245287 0.500109 0.373578
60 2 0.250124 0.990594 0.124846
61 2 0.131787 0.869942 0.501804
62 2 0.374752 0.616815 0.00731749
63 2 0.118158 0.619939 0.998349
64 2 0.376039 0.875407 0.497647
65 2 0.377765 0.620003 0.243687
66 2 0.125845 0.87867 0.251784
67 2 0.372432 0.87281 0.253762
68 2 0.119624 0.632386 0.255382
69 2 0.00528501 0.73405 0.622251
70 2 0.503089 0.751927 0.873708
71 2 0.257664 0.496652 0.87308
72 2 0.256669 0.993852 0.627547
73 2 0.127031 0.875352 0.00166361
74 2 0.369721 0.624991 0.502702
75 2 0.125745 0.619919 0.498029
76 2 0.376322 0.872784 0.994451
77 2 0.372207 0.621774 0.745227
78 2 0.119954 0.869926 0.752227
79 2 0.375858 0.874403 0.758199
80 2 0.121111 0.615333 0.748391
81 2 0.503759 0.254224 0.125149
82 2 0.996761 0.253403 0.378356
83 2 0.747488 0.000895727 0.370602
84 2 0.751348 0.503574 0.121812
85 2 0.623296 0.375447 0.500336
86 2 0.87603 0.124295 0.00121552
87 2 0.622407 0.1298 0.995349
88 2 0.878417 0.376783 0.499166
89 2 0.872857 0.132636 0.254134
90 2 0.638566 0.37437 0.247983
91 2 0.889173 0.386943 0.250668
92 2 0.622949 0.130966 0.248703
93 2 0.496687 0.252156 0.626805
94 2 0.00722255 0.249602 0.877094
95 2 0.739803 0.00106474 0.872189
96 2 0.753558 0.506711 0.623304
97 2 0.627603 0.377909 0.999352
98 2 0.868432 0.129953 0.500536
99 2 0.614171 0.114976 0.496543
100 2 0.867331 0.373933 0.99593
101 2 0.878801 0.120013 0.753727
102 2 0.619194 0.373757 0.74843
103 2 0.875136 0.370365 0.745631
104 2 0.631378 0.124427 0.742556
105 2 0.495783 0.765496 0.126336
106 2 0.99597 0.761106 0.370759
107 2 0.749161 0.503853 0.375291
108 2 0.75067 0.00977969 0.125759
109 2 0.62682 0.868375 0.503675
110 2 0.872903 0.627924 0.995555
111 2 0.626141 0.622777 0.00322119
112 2 0.878609 0.876694 0.500184
113 2 0.872744 0.634209 0.245185
114 2 0.620864 0.880415 0.255409
115 2 0.868655 0.878969 0.245477
116 2 0.62612 0.62596 0.251789
117 2 0.492516 0.753852 0.624244
118 2 0.99715 0.741425 0.870313
119 2 0.750585 0.492156 0.874998
120 2 0.755884 0.00292896 0.621608
121 2 0.624414 0.88209 0.998871
122 2 0.872412 0.633751 0.493593
123 2 0.621718 0.621413 0.499061
124 2 0.878136 0.876263 0.995821
125 2 0.872185 0.618991 0.755234
126 2 0.626351 0.873324 0.740144
127 2 0.869556 0.870842 0.755197
128 2 0.622829 0.622606 0.751446
129 3 0.00327117 0.25302 0.999469
130 3 0.249468 0.998489 0.00112602
131 3 0.000102301 0.252395 0.253808
132 3 0.255735 0.000239896 0.251376
133 3 0.998492 0.249609 0.50201
134 3 0.250503 0.00318919 0.500744
135 3 0.999212 0.242263 0.751272
136 3 0.251533 0.996244 0.755807
137 3 0.00228705 0.748502 0.999688
138 3 0.248447 0.501717 0.000941455
139 3 0.993827 0.755675 0.247786
140 3 0.248044 0.504192 0.252007
141 3 0.00383278 0.751011 0.495829
142 3 0.250173 0.496301 0.500836
143 3 0.995056 0.744582 0.748049
144 3 0.247473 0.49313 0.750506
145 3 0.498292 0.2518 8.42797e-05
146 3 0.747634 0.00392335 0.999564
147 3 0.500073 0.256185 0.250213
148 3 0.746023 0.010105 0.247939
149 3 0.499222 0.249365 0.503531
150 3 0.75375 0.996856 0.496044
151 3 0.501877 0.246672 0.748255
152 3 0.753648 0.000562914 0.744499
153 3 0.501835 0.747033 0.00305686
154 3 0.75181 0.503096 0.995354
155 3 0.502292 0.748226 0.250278
156 3 0.752676 0.503812 0.248379
157 3 0.496054 0.748226 0.500367
158 3 0.751582 0.503983 0.497998
159 3 0.501517 0.747959 0.751162
160 3 0.745885 0.496316 0.746901
ITEM: TIMESTEP
1000
ITEM: NUMBER OF ATOMS
160
ITEM: BOX BOUNDS xy xz yz pp pp pp
9.0300054451423195e-01 1.6853919691518016e+01 3.4675998856513797e-02
6.8449383936835706e-01 1.6491187562095909e+01 1.0244237175797612e-02
1.2624808570477331e+00 2.3681519142952190e+01 2.3681401464313603e-02
ITEM: ATOMS id type xs ys zs
1 1 0.25161 0.250363 0.122151
2 1 0.24928 0.251103 0.369848
3 1 0.995773 0.00703461 0.374889
4 1 0.505003 0.499116 0.123784
5 1 0.247515 0.252152 0.620943
6 1 0.2544 0.235959 0.879298
7 1 0.998725 0.00811897 0.879
8 1 0.497308 0.49963 0.625192
9 1 0.250124 0.755822 0.125854
10 1 0.251174 0.747399 0.373357
11 1 0.999811 0.51182 0.378265
12 1 0.501222 0.00197162 0.129909
13 1 0.261063 0.754902 0.628067
14 1 0.247589 0.747801 0.875571
15 1 0.00719012 0.499429 0.875693
16 1 0.507888 0.996675 0.622783
17 1 0.745111 0.251171 0.126821
18 1 0.741561 0.253116 0.374843
19 1 0.500625 0.99816 0.371433
20 1 0.00199912 0.50827 0.132488
21 1 0.740111 0.250357 0.622885
22 1 0.747287 0.255992 0.870999
23 1 0.503108 0.991091 0.87117
24 1 0.996008 0.49822 0.625388
25 1 0.759606 0.757941 0.12573
26 1 0.74554 0.756896 0.371438
27 1 0.495898 0.495067 0.377163
28 1 0.997724 0.000686899 0.123137
29 1 0.757227 0.75383 0.629997
30 1 0.757362 0.741536 0.875127
31 1 0.496146 0.492109 0.87418
32 1 0.000197982 0.99777 0.625875
33 2 0.00674491 0.250781 0.126757
34 2 0.490668 0.242402 0.376353
35 2 0.252929 0.999437 0.372165
36 2 0.242585 0.506275 0.120753
37 2 0.115964 0.385314 0.49635
38 2 0.379966 0.118328 0.00564815
39 2 0.127422 0.119744 0.999903
40 2 0.377638 0.37675 0.497622
41 2 0.373671 0.128109 0.240024
42 2 0.12439 0.37192 0.244833
43 2 0.373389 0.382851 0.249211
44 2 0.124082 0.124946 0.247358
45 2 0.0127868 0.253307 0.6238
46 2 0.501742 0.252703 0.87603
47 2 0.242396 0.000244835 0.87494
48 2 0.253377 0.491863 0.621977
49 2 0.12802 0.375022 0.9951
50 2 0.387919 0.118261 0.500879
51 2 0.124138 0.124661 0.495525
52 2 0.377435 0.373839 0.998823
53 2 0.373945 0.122485 0.751397
54 2 0.123145 0.37413 0.754087
55 2 0.371956 0.368688 0.753059
56 2 0.11556 0.114654 0.749207
57 2 0.994327 0.756929 0.123596
58 2 0.502264 0.74441 0.375298
59 2 0.247048 0.499191 0.371912
60 2 0.240402 0.999321 0.126058
61 2 0.11703 0.886035 0.499471
62 2 0.377248 0.622019 0.0104017
63 2 0.120427 0.619861 0.00185128
64 2 0.367261 0.863873 0.492191
65 2 0.376535 0.623435 0.241518
66 2 0.123803 0.87904 0.255096
67 2 0.374706 0.876059 0.253847
68 2 0.118143 0.629436 0.251813
69 2 0.0123827 0.744329 0.624888
70 2 0.488844 0.739375 0.871506
71 2 0.25452 0.503655 0.877803
72 2 0.253343 0.00196481 0.627077
73 2 0.130158 0.867599 0.997878
74 2 0.374267 0.618531 0.500609
75 2 0.136179 0.632174 0.502484
76 2 0.376847 0.879618 0.000759613
77 2 0.378004 0.621148 0.750999
78 2 0.130454 0.869926 0.74964
79 2 0.379771 0.875362 0.751425
80 2 0.123878 0.613116 0.746904
81 2 0.507625 0.248134 0.126323
82 2 0.992991 0.254297 0.373709
83 2 0.746358 0.00195091 0.377352
84 2 0.745562 0.498661 0.128175
85 2 0.624167 0.377441 0.496438
86 2 0.877461 0.128191 0.007072
87 2 0.623063 0.117075 0.998906
88 2 0.873394 0.377418 0.506202
89 2 0.875688 0.125309 0.252938
90 2 0.621163 0.379216 0.252578
91 2 0.869201 0.373565 0.255705
92 2 0.623515 0.133346 0.249495
93 2 0.499893 0.247629 0.624318
94 2 0.00262318 0.254461 0.874093
95 2 0.752474 0.00639686 0.875339
96 2 0.741052 0.503561 0.626743
97 2 0.628458 0.371698 0.000290289
98 2 0.878308 0.123517 0.503774
99 2 0.627543 0.12259 0.501724
100 2 0.875393 0.372399 0.00380583
101 2 0.877536 0.117222 0.750693
102 2 0.618043 0.378186 0.746268
103 2 0.870332 0.363719 0.739326
104 2 0.628734 0.128198 0.745551
105 2 0.504435 0.759961 0.125974
106 2 0.00146323 0.768304 0.373259
107 2 0.756086 0.506323 0.375014
108 2 0.747614 0.0017334 0.12274
109 2 0.619075 0.879344 0.501281
110 2 0.870808 0.626267 0.997929
111 2 0.626588 0.627401 0.00688393
112 2 0.871102 0.868994 0.501911
113 2 0.872679 0.627426 0.249573
114 2 0.620906 0.880914 0.247311
115 2 0.868311 0.882245 0.249972
116 2 0.624227 0.620209 0.251141
117 2 0.494882 0.747449 0.622985
118 2 0.998424 0.740418 0.875534
119 2 0.744014 0.492898 0.874093
120 2 0.757581 0.0026069 0.625663
121 2 0.629435 0.871805 0.994784
122 2 0.880195 0.622732 0.501143
123 2 0.626441 0.629334 0.497454
124 2 0.880297 0.881105 0.994431
125 2 0.878988 0.619388 0.751793
126 2 0.62534 0.876979 0.747782
127 2 0.88208 0.872037 0.754873
128 2 0.631511 0.630797 0.758154
129 3 0.00210753 0.252345 8.97204e-05
130 3 0.252196 0.995606 0.999737
131 3 0.998397 0.253755 0.249302
132 3 0.25065 0.00262091 0.251012
133 3 0.998386 0.250478 0.498565
134 3 0.254399 0.996025 0.498063
135 3 2.88368e-06 0.245175 0.750124
136 3 0.249662 0.00263466 0.751936
137 3 0.000178783 0.75145 0.00066143
138 3 0.248904 0.506003 0.997492
139 3 0.992613 0.754173 0.249323
140 3 0.247049 0.50494 0.246793
141 3 0.00560974 0.748625 0.499419
142 3 0.251099 0.495482 0.495065
143 3 0.0028005 0.748648 0.752625
144 3 0.250524 0.493808 0.748225
145 3 0.503606 0.245498 0.00375381
146 3 0.752024 0.00244196 0.999271
147 3 0.49603 0.25499 0.249163
148 3 0.74839 0.00835381 0.250835
149 3 0.500401 0.250594 0.500597
150 3 0.749877 0.993641 0.502195
151 3 0.496922 0.247237 0.752214
152 3 0.749637 0.996992 0.750047
153 3 0.499532 0.750917 0.000159334
154 3 0.748094 0.502064 0.00193801
155 3 0.498133 0.749665 0.24892
156 3 0.751924 0.50126 0.2525
157 3 0.494204 0.746657 0.502133
158 3 0.751588 0.503505 0.501702
159 3 0.502082 0.744376 0.747269
160 3 0.75019 0.496007 0.749647
ITEM: TIMESTEP
1500
ITEM: NUMBER OF ATOMS
160
ITEM: BOX BOUNDS xy xz yz pp pp pp
9.4462163450138126e-01 1.6864783835046758e+01 3.3828538333835846e-02
4.9332351013872655e-01 1.6540559075657459e+01 6.3576931214353483e-02
1.2500059561108849e+00 2.3693994043889020e+01 -1.1811741420378571e-01
ITEM: ATOMS id type xs ys zs
1 1 0.244913 0.243931 0.124785
2 1 0.246415 0.246508 0.374237
3 1 0.998838 0.00434365 0.375436
4 1 0.506806 0.508291 0.128266
5 1 0.241117 0.250371 0.623538
6 1 0.251124 0.24956 0.879359
7 1 0.00171591 0.00718366 0.872144
8 1 0.499721 0.503126 0.628387
9 1 0.254396 0.752337 0.12852
10 1 0.24852 0.755054 0.37724
11 1 0.997727 0.503345 0.376607
12 1 0.493914 0.00122493 0.123318
13 1 0.261409 0.751601 0.621611
14 1 0.256613 0.749401 0.874095
15 1 0.000461493 0.500282 0.875994
16 1 0.503094 0.995601 0.621035
17 1 0.755232 0.252182 0.119436
18 1 0.752947 0.259519 0.371347
19 1 0.502545 0.996531 0.37992
20 1 0.00235643 0.498366 0.128976
21 1 0.748276 0.250611 0.616583
22 1 0.754936 0.245864 0.876162
23 1 0.505163 0.00334685 0.877484
24 1 0.9975 0.501398 0.630862
25 1 0.750654 0.752584 0.122123
26 1 0.744669 0.743837 0.378048
27 1 0.497002 0.503909 0.374949
28 1 0.989573 0.996424 0.12575
29 1 0.749895 0.752784 0.625314
30 1 0.75707 0.744336 0.872159
31 1 0.500809 0.502426 0.874938
32 1 0.997009 0.990952 0.622742
33 2 0.000719913 0.254051 0.125296
34 2 0.497484 0.254003 0.373497
35 2 0.242011 0.0016125 0.374664
36 2 0.245497 0.506791 0.12922
37 2 0.127583 0.373517 0.502069
38 2 0.372623 0.118266 0.00380228
39 2 0.123373 0.12371 0.999817
40 2 0.388499 0.379945 0.496241
41 2 0.364226 0.132255 0.240419
42 2 0.121206 0.379886 0.254806
43 2 0.367285 0.373178 0.248277
44 2 0.123001 0.125827 0.242545
45 2 0.991824 0.249145 0.622938
46 2 0.503078 0.261391 0.873827
47 2 0.244939 0.0064871 0.87683
48 2 0.254123 0.502141 0.627003
49 2 0.129735 0.37685 0.00080436
50 2 0.371054 0.130571 0.499423
51 2 0.119479 0.126795 0.501253
52 2 0.3763 0.376077 0.00467211
53 2 0.382402 0.122863 0.754859
54 2 0.120295 0.376324 0.75301
55 2 0.376353 0.377546 0.751137
56 2 0.123179 0.116579 0.753172
57 2 0.995018 0.739237 0.126328
58 2 0.499975 0.752353 0.373554
59 2 0.248844 0.496704 0.37592
60 2 0.243954 0.993241 0.122783
61 2 0.124284 0.879253 0.500818
62 2 0.380585 0.631387 0.999816
63 2 0.128445 0.629677 0.00484607
64 2 0.377356 0.876855 0.498206
65 2 0.377958 0.626468 0.24832
66 2 0.126251 0.869151 0.251246
67 2 0.376935 0.885468 0.254591
68 2 0.125286 0.627121 0.253422
69 2 0.00425686 0.736375 0.62731
70 2 0.501723 0.750958 0.874496
71 2 0.25482 0.499007 0.879392
72 2 0.252265 0.00559569 0.622858
73 2 0.124385 0.870946 0.000345335
74 2 0.377385 0.625674 0.494838
75 2 0.12514 0.618537 0.502705
76 2 0.373865 0.87886 0.994807
77 2 0.375382 0.623703 0.75833
78 2 0.128646 0.871243 0.74604
79 2 0.384057 0.87636 0.753007
80 2 0.123478 0.615712 0.753862
81 2 0.502406 0.24531 0.127997
82 2 0.00170494 0.246527 0.375706
83 2 0.745069 0.991586 0.373249
84 2 0.748705 0.504133 0.122802
85 2 0.629877 0.36955 0.497312
86 2 0.881508 0.118487 0.00164178
87 2 0.628044 0.128978 0.998479
88 2 0.881023 0.383361 0.502053
89 2 0.872765 0.127379 0.259121
90 2 0.619148 0.375853 0.246748
91 2 0.874378 0.376388 0.248913
92 2 0.611554 0.121734 0.254622
93 2 0.492451 0.249618 0.623285
94 2 0.00428496 0.24994 0.871467
95 2 0.753292 0.00360571 0.873596
96 2 0.75026 0.500337 0.621443
97 2 0.625834 0.373888 0.999068
98 2 0.86525 0.127281 0.493746
99 2 0.617959 0.117312 0.50256
100 2 0.872258 0.371069 0.000514281
101 2 0.873826 0.128454 0.750864
102 2 0.625684 0.371135 0.735669
103 2 0.878577 0.374114 0.747845
104 2 0.622022 0.112966 0.745798
105 2 0.494609 0.760368 0.123604
106 2 0.00212918 0.755558 0.378798
107 2 0.751515 0.503402 0.374813
108 2 0.752063 0.00105954 0.125803
109 2 0.630735 0.870034 0.507218
110 2 0.870724 0.619847 0.995057
111 2 0.626755 0.626955 0.996497
112 2 0.881125 0.878515 0.499379
113 2 0.870232 0.621738 0.253558
114 2 0.630127 0.873803 0.252476
115 2 0.876664 0.879863 0.24963
116 2 0.620947 0.625644 0.24974
117 2 0.494405 0.756484 0.622799
118 2 0.00786177 0.73451 0.874718
119 2 0.745903 0.495268 0.873613
120 2 0.751455 0.996022 0.628308
121 2 0.627541 0.876797 0.99764
122 2 0.869869 0.635533 0.503151
123 2 0.62713 0.625533 0.501441
124 2 0.873753 0.873751 0.995251
125 2 0.87712 0.627426 0.753343
126 2 0.626581 0.869761 0.747909
127 2 0.886646 0.876706 0.748095
128 2 0.627327 0.623418 0.752614
129 3 0.000120741 0.248844 0.999302
130 3 0.240998 0.997881 0.998924
131 3 0.999437 0.252944 0.24795
132 3 0.243506 0.00209707 0.251647
133 3 0.994141 0.251363 0.499164
134 3 0.252682 0.999073 0.498072
135 3 0.00328664 0.246406 0.747717
136 3 0.254985 0.997156 0.748153
137 3 0.998106 0.746021 0.999633
138 3 0.251075 0.502642 0.00281327
139 3 0.995878 0.749192 0.251422
140 3 0.247033 0.501846 0.25364
141 3 0.00420981 0.748144 0.502335
142 3 0.253918 0.498664 0.499686
143 3 0.00732602 0.744825 0.752572
144 3 0.249132 0.494596 0.750562
145 3 0.498583 0.250618 0.00354721
146 3 0.7486 0.00375269 0.998461
147 3 0.491777 0.252461 0.250576
148 3 0.749049 0.00413017 0.251431
149 3 0.500803 0.245354 0.496998
150 3 0.750561 0.994056 0.499098
151 3 0.500612 0.253222 0.750238
152 3 0.752915 0.994722 0.749977
153 3 0.503388 0.756754 0.999324
154 3 0.74813 0.497853 0.998624
155 3 0.499306 0.756386 0.24682
156 3 0.748415 0.501254 0.24867
157 3 0.498996 0.750498 0.500661
158 3 0.750093 0.499626 0.497949
159 3 0.502324 0.745408 0.748033
160 3 0.753983 0.499323 0.750529
ITEM: TIMESTEP
2000
ITEM: NUMBER OF ATOMS
160
ITEM: BOX BOUNDS xy xz yz pp pp pp
8.8096788573800788e-01 1.6802952341197940e+01 -4.9008234369674400e-02
6.4710659589454833e-01 1.6696583335745771e+01 2.0928461305698743e-02
1.2300531211621850e+00 2.3713946878837692e+01 1.9168993164035142e-01
ITEM: ATOMS id type xs ys zs
1 1 0.253596 0.248927 0.127844
2 1 0.246907 0.256865 0.372718
3 1 0.993284 0.999411 0.3805
4 1 0.50314 0.499513 0.125646
5 1 0.254443 0.249577 0.627301
6 1 0.246403 0.254568 0.880921
7 1 0.995673 0.000182076 0.868809
8 1 0.503287 0.500859 0.627759
9 1 0.25333 0.750149 0.12634
10 1 0.241964 0.759416 0.379871
11 1 0.99638 0.500132 0.375842
12 1 0.489815 0.00226115 0.122866
13 1 0.248853 0.74709 0.625289
14 1 0.254129 0.754304 0.873848
15 1 0.00533337 0.496649 0.870594
16 1 0.50437 0.997946 0.625665
17 1 0.752197 0.251709 0.126708
18 1 0.74617 0.245784 0.374665
19 1 0.498037 0.997652 0.375244
20 1 0.0068416 0.503402 0.12232
21 1 0.748611 0.259882 0.626919
22 1 0.74852 0.24307 0.874547
23 1 0.508533 0.0010216 0.874834
24 1 0.00206889 0.505038 0.629785
25 1 0.749486 0.755322 0.120407
26 1 0.742755 0.752357 0.378105
27 1 0.501695 0.495176 0.368289
28 1 0.994401 0.99997 0.124845
29 1 0.752677 0.750295 0.628704
30 1 0.759632 0.745935 0.871733
31 1 0.503841 0.495248 0.87751
32 1 0.00047988 0.998683 0.624513
33 2 0.990692 0.253442 0.127327
34 2 0.495447 0.255301 0.375056
35 2 0.239968 0.00314367 0.375964
36 2 0.24655 0.502127 0.119139
37 2 0.122099 0.375585 0.503063
38 2 0.368074 0.12558 0.00375353
39 2 0.123407 0.121602 0.000749813
40 2 0.379089 0.377683 0.489846
41 2 0.36888 0.120544 0.245724
42 2 0.125573 0.386193 0.252517
43 2 0.373809 0.37409 0.248378
44 2 0.125966 0.128805 0.247038
45 2 0.994419 0.257159 0.623887
46 2 0.498804 0.245099 0.873096
47 2 0.263249 0.00517331 0.875146
48 2 0.262489 0.50083 0.623999
49 2 0.132989 0.370108 0.000432319
50 2 0.3709 0.134668 0.501487
51 2 0.121956 0.123189 0.508008
52 2 0.383135 0.392658 0.00275508
53 2 0.383327 0.120122 0.748531
54 2 0.123707 0.373182 0.744324
55 2 0.378689 0.372485 0.755152
56 2 0.126265 0.126764 0.758266
57 2 0.994166 0.759951 0.12223
58 2 0.490857 0.739853 0.373143
59 2 0.248876 0.507787 0.374732
60 2 0.244555 0.994053 0.125793
61 2 0.117717 0.878693 0.496299
62 2 0.374121 0.634403 0.00663404
63 2 0.125028 0.626133 0.99707
64 2 0.375514 0.879201 0.49644
65 2 0.376974 0.62764 0.248537
66 2 0.117676 0.877265 0.254648
67 2 0.371203 0.875578 0.253381
68 2 0.125143 0.626839 0.24204
69 2 0.00688361 0.752222 0.623925
70 2 0.494731 0.739842 0.876235
71 2 0.251723 0.492169 0.876044
72 2 0.25141 0.994193 0.625288
73 2 0.127332 0.874294 0.992598
74 2 0.373309 0.621782 0.499386
75 2 0.131255 0.629177 0.505462
76 2 0.381823 0.881574 0.00134509
77 2 0.372293 0.620638 0.75265
78 2 0.123291 0.884722 0.75006
79 2 0.377584 0.870392 0.746471
80 2 0.134337 0.627233 0.7482
81 2 0.50291 0.246301 0.126928
82 2 0.0021088 0.248484 0.374721
83 2 0.745118 0.996641 0.377549
84 2 0.739766 0.505288 0.125254
85 2 0.616316 0.374984 0.496644
86 2 0.883823 0.119478 0.00547678
87 2 0.623507 0.12916 0.00224927
88 2 0.874745 0.372691 0.494787
89 2 0.874265 0.128004 0.25331
90 2 0.621993 0.372183 0.253466
91 2 0.868818 0.376645 0.245734
92 2 0.624225 0.125083 0.242564
93 2 0.495101 0.252718 0.625191
94 2 0.991542 0.2565 0.875351
95 2 0.762576 0.00322766 0.877232
96 2 0.749265 0.495521 0.625571
97 2 0.620493 0.375182 0.000559173
98 2 0.868464 0.133095 0.504368
99 2 0.624343 0.124948 0.503042
100 2 0.861942 0.3722 0.0022428
101 2 0.875802 0.117906 0.747879
102 2 0.626146 0.37812 0.749713
103 2 0.874658 0.366526 0.743115
104 2 0.625516 0.128044 0.748929
105 2 0.509288 0.758211 0.126988
106 2 0.99969 0.747688 0.377803
107 2 0.755673 0.501585 0.372102
108 2 0.751584 0.999391 0.125445
109 2 0.624628 0.870029 0.505417
110 2 0.875066 0.61931 0.000656549
111 2 0.631637 0.6299 0.993448
112 2 0.87471 0.872224 0.500967
113 2 0.881197 0.620083 0.245903
114 2 0.618425 0.876029 0.258347
115 2 0.871904 0.868982 0.252537
116 2 0.631341 0.631761 0.24951
117 2 0.496677 0.750583 0.626645
118 2 0.00915169 0.74036 0.872626
119 2 0.757473 0.491132 0.875262
120 2 0.749423 0.993506 0.626555
121 2 0.630889 0.876816 0.993244
122 2 0.883806 0.614704 0.503175
123 2 0.631147 0.626114 0.501975
124 2 0.872483 0.878096 0.995017
125 2 0.878745 0.626784 0.748798
126 2 0.618426 0.876642 0.751818
127 2 0.869906 0.869221 0.751018
128 2 0.630628 0.621038 0.750132
129 3 0.000306922 0.25268 0.00269683
130 3 0.245265 0.999301 0.999181
131 3 0.00026261 0.256429 0.249067
132 3 0.242972 0.996567 0.250259
133 3 0.00137174 0.250374 0.500582
134 3 0.247431 0.998821 0.49906
135 3 0.0010361 0.250137 0.749182
136 3 0.255534 0.998925 0.752151
137 3 0.998102 0.748688 0.998179
138 3 0.24883 0.501559 0.997985
139 3 0.997625 0.750576 0.247741
140 3 0.251237 0.503702 0.248203
141 3 0.999564 0.747085 0.49792
142 3 0.249439 0.496843 0.501425
143 3 0.00947351 0.749173 0.7478
144 3 0.250638 0.495179 0.750842
145 3 0.495387 0.253094 0.997064
146 3 0.750807 0.00524161 0.999419
147 3 0.490219 0.248476 0.249764
148 3 0.747798 0.997949 0.251375
149 3 0.498962 0.249307 0.500956
150 3 0.752968 0.0030206 0.501129
151 3 0.503676 0.250384 0.751078
152 3 0.7517 0.995122 0.749607
153 3 0.503885 0.746783 0.00353341
154 3 0.747632 0.49663 0.999212
155 3 0.501336 0.74948 0.246652
156 3 0.747774 0.500731 0.24937
157 3 0.496481 0.750252 0.500497
158 3 0.749106 0.491388 0.500176
159 3 0.502879 0.743577 0.750747
160 3 0.759182 0.497945 0.750326
ITEM: TIMESTEP
2500
ITEM: NUMBER OF ATOMS
160
ITEM: BOX BOUNDS xy xz yz pp pp pp
8.6203794842287929e-01 1.6814903412512923e+01 -6.0142662410113581e-02
6.0769017058824093e-01 1.6586032560547956e+01 2.5084023345968723e-02
1.2091766984083883e+00 2.3734823301591486e+01 4.1722731136283782e-02
ITEM: ATOMS id type xs ys zs
1 1 0.250673 0.250448 0.124942
2 1 0.248365 0.259287 0.374425
3 1 0.999412 0.995346 0.384974
4 1 0.501411 0.50181 0.123785
5 1 0.261918 0.245008 0.621446
6 1 0.244872 0.255069 0.876053
7 1 0.00654041 0.999467 0.874684
8 1 0.496686 0.507098 0.623974
9 1 0.250962 0.74864 0.117516
10 1 0.241303 0.749198 0.381273
11 1 0.0035665 0.498633 0.377014
12 1 0.493954 0.000239388 0.121556
13 1 0.2454 0.747968 0.628132
14 1 0.25805 0.748676 0.87993
15 1 0.994707 0.495307 0.875158
16 1 0.502386 0.999945 0.626767
17 1 0.757163 0.251619 0.12485
18 1 0.752634 0.244231 0.371152
19 1 0.497317 0.996529 0.367424
20 1 0.998792 0.503711 0.122976
21 1 0.749756 0.258828 0.628444
22 1 0.751729 0.247027 0.880016
23 1 0.491692 0.999703 0.87441
24 1 0.00281298 0.497526 0.623131
25 1 0.748954 0.755925 0.121577
26 1 0.745674 0.752859 0.377002
27 1 0.500026 0.499586 0.375654
28 1 0.995745 0.00120885 0.124313
29 1 0.74379 0.756521 0.62898
30 1 0.752679 0.748831 0.873774
31 1 0.508198 0.498217 0.878924
32 1 0.00683692 0.00821724 0.629545
33 2 0.99904 0.246491 0.122929
34 2 0.494507 0.262894 0.374733
35 2 0.252473 0.99709 0.377567
36 2 0.244555 0.506717 0.121628
37 2 0.123635 0.377622 0.502279
38 2 0.38476 0.115521 0.996328
39 2 0.133912 0.132627 0.999043
40 2 0.372419 0.37461 0.498146
41 2 0.380663 0.12165 0.254494
42 2 0.125926 0.372185 0.245418
43 2 0.375572 0.372593 0.250079
44 2 0.119655 0.122153 0.252975
45 2 0.0124345 0.250518 0.624559
46 2 0.496173 0.254754 0.872278
47 2 0.254193 0.00376477 0.877327
48 2 0.251152 0.507261 0.623005
49 2 0.120224 0.378223 0.00273644
50 2 0.36785 0.124674 0.495938
51 2 0.128588 0.119775 0.505335
52 2 0.368863 0.369114 0.998606
53 2 0.37611 0.135926 0.752542
54 2 0.125818 0.371373 0.748531
55 2 0.378674 0.378133 0.748864
56 2 0.133881 0.123591 0.751925
57 2 0.000572105 0.747218 0.12568
58 2 0.490576 0.746895 0.373536
59 2 0.247735 0.498238 0.370997
60 2 0.244464 0.0137223 0.125863
61 2 0.119594 0.873169 0.499062
62 2 0.375274 0.622653 0.00180995
63 2 0.124653 0.628997 0.994096
64 2 0.382333 0.876641 0.498441
65 2 0.375445 0.626937 0.246232