ITEM: TIMESTEP
0
ITEM: NUMBER OF ATOMS
160
ITEM: BOX BOUNDS xy xz yz pp pp pp
7.7034003263389428e-01 1.6941659967366100e+01 0.0000000000000000e+00
5.7273400579719269e-01 1.6579265994202807e+01 0.0000000000000000e+00
9.6404741571496488e-01 2.3979952584285041e+01 0.0000000000000000e+00
ITEM: ATOMS id type xs ys zs
1 1 0.247291 0.258083 0.13226
2 1 0.259857 0.232922 0.37935
3 1 0.00892162 0.998467 0.380545
4 1 0.480611 0.500357 0.129181
5 1 0.22215 0.248405 0.630518
6 1 0.252377 0.258252 0.873964
7 1 0.00922449 0.00548644 0.871878
8 1 0.500759 0.497354 0.634836
9 1 0.2362 0.724396 0.133449
10 1 0.272572 0.757675 0.374448
11 1 0.00732299 0.511964 0.373314
12 1 0.477905 0.0162135 0.133159
13 1 0.23753 0.743948 0.621015
14 1 0.26623 0.755518 0.875338
15 1 0.0117616 0.491403 0.867591
16 1 0.485674 0.996819 0.622823
17 1 0.730967 0.249152 0.128172
18 1 0.76486 0.255256 0.375161
19 1 0.519504 0.994919 0.373629
20 1 0.984291 0.503531 0.123078
21 1 0.752548 0.257064 0.626666
22 1 0.750343 0.237514 0.873454
23 1 0.503017 0.986974 0.87086
24 1 0.979187 0.50667 0.62054
25 1 0.731873 0.748225 0.127022
26 1 0.766834 0.763328 0.370053
27 1 0.521467 0.486201 0.375497
28 1 0.989451 0.988915 0.120226
29 1 0.741447 0.756034 0.624726
30 1 0.768161 0.767257 0.881449
31 1 0.507595 0.509536 0.879785
32 1 0.997831 0.99649 0.623997
33 2 0.0015858 0.279315 0.122508
34 2 0.506423 0.220978 0.3696
35 2 0.254325 0.0214898 0.373568
36 2 0.267473 0.472076 0.126378
37 2 0.150713 0.351291 0.483369
38 2 0.33889 0.157871 0.0187203
39 2 0.092001 0.10323 0.00567315
40 2 0.400505 0.394147 0.479452
41 2 0.349734 0.14105 0.236386
42 2 0.148327 0.351668 0.255768
43 2 0.394225 0.386248 0.268863
44 2 0.107158 0.104527 0.22102
45 2 0.99587 0.281185 0.621339
46 2 0.494648 0.220056 0.879042
47 2 0.237945 0.0191996 0.875346
48 2 0.258267 0.456638 0.621755
49 2 0.146593 0.348907 0.992228
50 2 0.348464 0.154239 0.513475
51 2 0.110273 0.102053 0.513633
52 2 0.397536 0.395353 0.97964
53 2 0.357953 0.145594 0.733127
54 2 0.147783 0.34617 0.755073
55 2 0.398291 0.39949 0.766914
56 2 0.0950375 0.100856 0.726782
57 2 0.0134308 0.773861 0.125981
58 2 0.512526 0.734045 0.379015
59 2 0.243852 0.53347 0.371966
60 2 0.259432 0.969202 0.126088
61 2 0.150481 0.851722 0.487668
62 2 0.346695 0.647155 0.0120135
63 2 0.0972674 0.590154 0.00711156
64 2 0.397474 0.886479 0.49134
65 2 0.361752 0.643619 0.244565
66 2 0.138801 0.863223 0.260759
67 2 0.395831 0.895306 0.259883
68 2 0.101335 0.605311 0.238099
69 2 0.00487248 0.781218 0.62421
70 2 0.485386 0.739909 0.877781
71 2 0.242952 0.515646 0.872602
72 2 0.254063 0.969702 0.625807
73 2 0.154274 0.854894 0.987322
74 2 0.357038 0.637934 0.508355
75 2 0.107776 0.601908 0.518027
76 2 0.403261 0.899692 0.993004
77 2 0.351382 0.64853 0.733069
78 2 0.151529 0.837704 0.758862
79 2 0.402166 0.891498 0.75943
80 2 0.104082 0.592844 0.724604
81 2 0.49191 0.282119 0.127858
82 2 0.00882882 0.215324 0.37378
83 2 0.754713 0.0231994 0.375812
84 2 0.760344 0.494987 0.124141
85 2 0.648448 0.339317 0.494596
86 2 0.843156 0.145518 0.995778
87 2 0.600427 0.104329 0.028405
88 2 0.906433 0.407408 0.48265
89 2 0.862235 0.150445 0.246529
90 2 0.648272 0.346656 0.260567
91 2 0.907394 0.402026 0.266014
92 2 0.600943 0.10315 0.235422
93 2 0.499641 0.280799 0.629228
94 2 0.00781816 0.239835 0.87103
95 2 0.735213 0.0169894 0.8734
96 2 0.7552 0.479169 0.627091
97 2 0.646005 0.35728 0.98833
98 2 0.852983 0.157109 0.511759
99 2 0.593043 0.100178 0.506605
100 2 0.8877 0.397916 0.985761
101 2 0.853289 0.145462 0.750605
102 2 0.648308 0.350992 0.769797
103 2 0.890056 0.39757 0.763747
104 2 0.600945 0.106378 0.741545
105 2 0.499014 0.773603 0.127823
106 2 0.999777 0.734439 0.376468
107 2 0.750326 0.524381 0.372816
108 2 0.765147 0.97986 0.125169
109 2 0.644875 0.858458 0.493339
110 2 0.854275 0.653292 0.0175048
111 2 0.591023 0.589981 0.0159516
112 2 0.903115 0.908425 0.492869
113 2 0.849541 0.651767 0.245019
114 2 0.649443 0.852009 0.25746
115 2 0.897341 0.903039 0.263238
116 2 0.59434 0.595896 0.242924
117 2 0.514358 0.766163 0.630028
118 2 0.992806 0.73212 0.875019
119 2 0.742943 0.540268 0.873307
120 2 0.755136 0.976133 0.622351
121 2 0.646099 0.844664 0.993752
122 2 0.859038 0.651069 0.51629
123 2 0.607971 0.598327 0.514473
124 2 0.896632 0.896775 0.985368
125 2 0.848084 0.650911 0.729532
126 2 0.641003 0.851864 0.760272
127 2 0.901617 0.888116 0.768383
128 2 0.598479 0.598214 0.739424
129 3 0.990165 0.252204 0.994149
130 3 0.252781 0.00583829 0.999655
131 3 0.00466467 0.248247 0.248907
132 3 0.251533 0.998927 0.248717
133 3 0.00476476 0.257752 0.500596
134 3 0.25659 0.99248 0.497137
135 3 0.991619 0.25294 0.747523
136 3 0.249121 0.997624 0.7486
137 3 0.997322 0.74991 0.998704
138 3 0.252574 0.497977 0.997455
139 3 0.993819 0.749821 0.246257
140 3 0.252786 0.499114 0.251832
141 3 0.0025158 0.750202 0.502003
142 3 0.254781 0.499203 0.49633
143 3 0.00323715 0.742347 0.746905
144 3 0.252658 0.501514 0.744961
145 3 0.49751 0.249644 0.00246727
146 3 0.739937 0.999741 0.00249401
147 3 0.497609 0.249185 0.247354
148 3 0.754071 0.00136093 0.247921
149 3 0.496484 0.250896 0.495734
150 3 0.744669 0.00639648 0.501278
151 3 0.499053 0.254454 0.756844
152 3 0.750704 0.00468785 0.747613
153 3 0.492227 0.74098 2.65307e-05
154 3 0.746379 0.512086 0.997937
155 3 0.502065 0.749009 0.254936
156 3 0.743597 0.497428 0.250075
157 3 0.507218 0.742046 0.504567
158 3 0.754573 0.503909 0.497848
159 3 0.49913 0.748635 0.753135
160 3 0.746161 0.501444 0.754034
ITEM: TIMESTEP
500
ITEM: NUMBER OF ATOMS
160
ITEM: BOX BOUNDS xy xz yz pp pp pp
6.2861454499484748e-01 1.7275534495274393e+01 1.3692655742721710e-01
4.5276325404842394e-01 1.6696207253396555e+01 5.5222482842037832e-02
8.5608792109067078e-01 2.4087912078909387e+01 -3.0294925549744565e-03
ITEM: ATOMS id type xs ys zs
1 1 0.24583 0.243662 0.122289
2 1 0.272416 0.249529 0.361262
3 1 0.0156104 0.983556 0.377889
4 1 0.486483 0.493749 0.118434
5 1 0.226875 0.24013 0.617338
6 1 0.257438 0.241723 0.869485
7 1 0.00736737 0.98127 0.871747
8 1 0.476911 0.493935 0.625902
9 1 0.2415 0.743578 0.129453
10 1 0.2841 0.761421 0.384947
11 1 0.999013 0.520133 0.375143
12 1 0.487921 0.996082 0.130019
13 1 0.227562 0.749512 0.623706
14 1 0.259857 0.756737 0.86648
15 1 0.00655738 0.508905 0.876469
16 1 0.48802 0.00210105 0.631301
17 1 0.756548 0.250701 0.12033
18 1 0.772973 0.246579 0.378511
19 1 0.511193 0.0174215 0.36947
20 1 0.996177 0.505149 0.117024
21 1 0.743314 0.252355 0.623736
22 1 0.760436 0.259206 0.873526
23 1 0.506144 0.986135 0.874009
24 1 0.977773 0.504741 0.627519
25 1 0.758293 0.755125 0.126848
26 1 0.751117 0.743323 0.37507
27 1 0.500423 0.508543 0.377812
28 1 0.00208205 0.984695 0.129766
29 1 0.754863 0.74666 0.618424
30 1 0.768282 0.766308 0.879733
31 1 0.520706 0.49955 0.875816
32 1 0.996173 0.00483641 0.622642
33 2 0.998433 0.284465 0.123058
34 2 0.515748 0.221951 0.371513
35 2 0.222059 0.0133577 0.376955
36 2 0.256592 0.475727 0.1214
37 2 0.133145 0.371813 0.479247
38 2 0.355416 0.149921 0.00364637
39 2 0.0971878 0.100796 0.0193022
40 2 0.386945 0.386878 0.48493
41 2 0.36411 0.133524 0.241193
42 2 0.140085 0.356051 0.25139
43 2 0.393078 0.386635 0.27845
44 2 0.109239 0.106888 0.238175
45 2 0.988901 0.283189 0.619331
46 2 0.517009 0.229181 0.87881
47 2 0.225783 0.992664 0.87161
48 2 0.252979 0.460677 0.621413
49 2 0.142517 0.357061 0.989118
50 2 0.357644 0.146913 0.501997
51 2 0.103016 0.111028 0.515851
52 2 0.401373 0.398381 0.981829
53 2 0.353074 0.134404 0.747131
54 2 0.131382 0.360106 0.757587
55 2 0.387875 0.386364 0.77146
56 2 0.110612 0.114417 0.726783
57 2 0.98152 0.766038 0.123638
58 2 0.504858 0.722234 0.378367
59 2 0.261866 0.53642 0.374536
60 2 0.274678 0.975905 0.120926
61 2 0.146683 0.845039 0.502423
62 2 0.349871 0.657568 0.0186342
63 2 0.106234 0.609031 0.0135566
64 2 0.4009 0.900444 0.483929
65 2 0.365919 0.636495 0.239288
66 2 0.13511 0.85924 0.250069
67 2 0.397961 0.889653 0.270425
68 2 0.10651 0.6075 0.232892
69 2 0.991701 0.765007 0.621865
70 2 0.479019 0.720739 0.879205
71 2 0.250617 0.534285 0.87619
72 2 0.250991 0.982566 0.624233
73 2 0.152393 0.849429 0.000794998
74 2 0.362758 0.636185 0.522154
75 2 0.104459 0.607901 0.514465
76 2 0.40556 0.906824 0.991774
77 2 0.354426 0.634843 0.730393
78 2 0.151549 0.848897 0.744914
79 2 0.384527 0.892892 0.770632
80 2 0.110688 0.608793 0.73422
81 2 0.485762 0.271996 0.125089
82 2 0.00317935 0.216195 0.374627
83 2 0.749677 0.0302635 0.379524
84 2 0.781047 0.482551 0.130303
85 2 0.644671 0.353279 0.498366
86 2 0.848985 0.14514 0.00495791
87 2 0.605363 0.104301 0.0169176
88 2 0.893042 0.405479 0.485102
89 2 0.861185 0.151866 0.232897
90 2 0.635392 0.368327 0.251365
91 2 0.884807 0.390864 0.274055
92 2 0.61159 0.0973641 0.238209
93 2 0.486221 0.263383 0.628454
94 2 0.00345024 0.213997 0.869273
95 2 0.736024 0.0267972 0.871748
96 2 0.747921 0.483509 0.628273
97 2 0.64839 0.352512 0.0055912
98 2 0.841305 0.156594 0.517358
99 2 0.600647 0.103415 0.507956
100 2 0.894278 0.392486 0.979628
101 2 0.859063 0.13972 0.750378
102 2 0.644684 0.34748 0.754884
103 2 0.894064 0.391714 0.761762
104 2 0.605291 0.099837 0.736117
105 2 0.511702 0.77826 0.126284
106 2 0.992989 0.752756 0.374081
107 2 0.738415 0.525073 0.371627
108 2 0.759149 0.973445 0.126804
109 2 0.648766 0.852427 0.487301
110 2 0.849379 0.653753 0.00192671
111 2 0.602531 0.601651 0.0114714
112 2 0.900278 0.902885 0.492721
113 2 0.855379 0.643642 0.249295
114 2 0.640551 0.854967 0.266916
115 2 0.902013 0.904926 0.260082
116 2 0.609546 0.606694 0.232913
117 2 0.50759 0.781202 0.631069
118 2 0.00588806 0.730796 0.873149
119 2 0.73113 0.517128 0.874596
120 2 0.760215 0.97466 0.629023
121 2 0.642453 0.854157 0.989391
122 2 0.859975 0.642146 0.502873
123 2 0.603858 0.609111 0.518927
124 2 0.897392 0.895327 0.976651
125 2 0.852079 0.650845 0.74023
126 2 0.642852 0.850115 0.768377
127 2 0.903276 0.892267 0.76115
128 2 0.596855 0.60066 0.740825
129 3 0.00516134 0.246235 0.995217
130 3 0.250504 0.00072324 0.998832
131 3 0.000849229 0.253896 0.249289
132 3 0.24919 0.00344211 0.247825
133 3 0.993257 0.252779 0.496361
134 3 0.249932 0.998762 0.497424
135 3 0.990428 0.25418 0.741618
136 3 0.243247 0.995796 0.747835
137 3 0.00174094 0.75896 0.00176906
138 3 0.253366 0.506431 0.996518
139 3 0.997467 0.752651 0.249056
140 3 0.250682 0.496938 0.249218
141 3 0.995071 0.75451 0.499111
142 3 0.248945 0.497437 0.500248
143 3 0.00655536 0.74662 0.746362
144 3 0.247068 0.491804 0.750274
145 3 0.502925 0.250892 0.00425221
146 3 0.754334 0.994162 0.00262073
147 3 0.501769 0.248927 0.252098
148 3 0.760358 0.0029428 0.250756
149 3 0.496407 0.251243 0.501532
150 3 0.746989 0.00260766 0.506564
151 3 0.493969 0.237041 0.755881
152 3 0.753276 0.998408 0.750142
153 3 0.49479 0.759022 0.00608241
154 3 0.751774 0.502629 0.997945
155 3 0.504961 0.749839 0.254049
156 3 0.749427 0.498724 0.250332
157 3 0.504233 0.757139 0.504119
158 3 0.748699 0.497169 0.496403
159 3 0.495226 0.751257 0.75211
160 3 0.746157 0.49211 0.75251
ITEM: TIMESTEP
1000
ITEM: NUMBER OF ATOMS
160
ITEM: BOX BOUNDS xy xz yz pp pp pp
5.5887939570682710e-01 1.7012282320222084e+01 -1.0057072109668305e-01
2.9680976812740212e-01 1.6717392090303292e+01 -4.0267562974385052e-02
8.8345137038735011e-01 2.4060548629612736e+01 -1.3779814156920217e-01
ITEM: ATOMS id type xs ys zs
1 1 0.228343 0.239693 0.126091
2 1 0.255798 0.239128 0.373506
3 1 0.00224406 0.996685 0.371152
4 1 0.481539 0.512168 0.12587
5 1 0.225924 0.247566 0.624949
6 1 0.259902 0.253968 0.883335
7 1 0.0105211 0.995044 0.874194
8 1 0.473383 0.498036 0.623493
9 1 0.226826 0.762379 0.120158
10 1 0.280001 0.747894 0.376338
11 1 0.000126852 0.502312 0.373665
12 1 0.484689 0.993324 0.130562
13 1 0.23837 0.755127 0.615729
14 1 0.269502 0.756413 0.877741
15 1 0.0042621 0.491653 0.867804
16 1 0.489135 0.00206003 0.616374
17 1 0.74421 0.23752 0.12132
18 1 0.74316 0.251938 0.383479
19 1 0.510958 0.00757025 0.368734
20 1 0.993457 0.500864 0.121374
21 1 0.740505 0.241848 0.626732
22 1 0.769353 0.243369 0.880903
23 1 0.509619 0.983979 0.878471
24 1 0.995407 0.508539 0.617285
25 1 0.732473 0.748315 0.121726
26 1 0.763648 0.742295 0.384515
27 1 0.50525 0.505496 0.365181
28 1 0.982993 0.00293133 0.116206
29 1 0.753708 0.753289 0.636369
30 1 0.755307 0.74161 0.879256
31 1 0.516573 0.502633 0.874537
32 1 0.978703 2.57939e-05 0.625138
33 2 0.999866 0.26441 0.124812
34 2 0.475054 0.225499 0.375487
35 2 0.251341 0.0275675 0.372175
36 2 0.246353 0.475643 0.123196
37 2 0.138526 0.36465 0.481728
38 2 0.349106 0.145993 0.018894
39 2 0.107985 0.105943 0.00339883
40 2 0.385278 0.388386 0.499079
41 2 0.366096 0.130127 0.23303
42 2 0.121518 0.357515 0.257078
43 2 0.384268 0.39226 0.257296
44 2 0.101387 0.0988993 0.230926
45 2 0.00334806 0.279211 0.617033
46 2 0.477002 0.223762 0.875767
47 2 0.253138 0.0351557 0.875393
48 2 0.244032 0.478859 0.622476
49 2 0.151324 0.354748 0.985128
50 2 0.353271 0.139074 0.523897
51 2 0.106074 0.0947343 0.513481
52 2 0.397542 0.402507 0.99181
53 2 0.364262 0.143654 0.732384
54 2 0.148658 0.360371 0.764433
55 2 0.394242 0.39415 0.753188
56 2 0.117179 0.115182 0.72153
57 2 0.0185404 0.76609 0.126218
58 2 0.513428 0.739984 0.376616
59 2 0.259576 0.532461 0.372343
60 2 0.245523 0.969266 0.123834
61 2 0.148155 0.856326 0.484924
62 2 0.35115 0.660916 0.0158965
63 2 0.0953182 0.602707 0.00596644
64 2 0.405708 0.897532 0.496576
65 2 0.355974 0.647447 0.239691
66 2 0.148963 0.848591 0.272531
67 2 0.395416 0.888433 0.260524
68 2 0.0966716 0.600138 0.249675
69 2 0.00984944 0.784503 0.622599
70 2 0.491373 0.721598 0.877726
71 2 0.249392 0.536372 0.875499
72 2 0.255816 0.969418 0.626557
73 2 0.145527 0.84572 0.97478
74 2 0.347375 0.652364 0.512889
75 2 0.0926488 0.606981 0.500937
76 2 0.403109 0.904944 0.989976
77 2 0.359586 0.644125 0.731673
78 2 0.139849 0.859356 0.772682
79 2 0.394691 0.890707 0.765166
80 2 0.115655 0.612719 0.73451
81 2 0.511998 0.265161 0.118179
82 2 0.995726 0.216878 0.371928
83 2 0.759141 0.00638993 0.376949
84 2 0.751501 0.468869 0.121588
85 2 0.641821 0.35161 0.490183
86 2 0.84912 0.150795 0.00405714
87 2 0.605195 0.110421 0.00877019
88 2 0.891537 0.396534 0.484238
89 2 0.83964 0.147884 0.242078
90 2 0.632536 0.349973 0.265371
91 2 0.883885 0.388338 0.263233
92 2 0.608783 0.0997486 0.244891
93 2 0.516274 0.286563 0.627995
94 2 0.00432978 0.220891 0.872621
95 2 0.758672 0.0208412 0.874924
96 2 0.742535 0.473694 0.623334
97 2 0.64281 0.351723 0.98113
98 2 0.855136 0.148527 0.506369
99 2 0.603363 0.105489 0.506918
100 2 0.901657 0.399615 0.989094
101 2 0.866479 0.148921 0.745802
102 2 0.651605 0.361034 0.772826
103 2 0.903231 0.3941 0.755863
104 2 0.612795 0.110974 0.740514
105 2 0.511664 0.767334 0.129874
106 2 0.978852 0.730495 0.374497
107 2 0.748623 0.522572 0.37922
108 2 0.755515 0.999784 0.119838
109 2 0.650021 0.852763 0.493675
110 2 0.856391 0.645203 0.0226481
111 2 0.597395 0.594899 0.00381368
112 2 0.898921 0.89836 0.496198
113 2 0.85535 0.633964 0.230202
114 2 0.653214 0.85593 0.25566
115 2 0.899847 0.899323 0.255646
116 2 0.602226 0.599295 0.247281
117 2 0.514201 0.769897 0.632706
118 2 0.977483 0.733458 0.874076
119 2 0.772695 0.522501 0.880047
120 2 0.748194 0.993991 0.628168
121 2 0.651694 0.858105 0.996382
122 2 0.849183 0.651071 0.515852
123 2 0.600013 0.601786 0.505746
124 2 0.901338 0.90302 0.994891
125 2 0.859705 0.642748 0.733405
126 2 0.647268 0.847301 0.770459
127 2 0.889533 0.897186 0.758102
128 2 0.616034 0.597871 0.744583
129 3 0.00817434 0.256358 0.996624
130 3 0.253859 0.000137564 0.999648
131 3 0.989183 0.240667 0.252128
132 3 0.243799 0.994794 0.245693
133 3 0.0010156 0.248795 0.496285
134 3 0.256333 0.993133 0.504686
135 3 0.00650773 0.25389 0.746267
136 3 0.255557 0.999855 0.752094
137 3 0.99915 0.752632 0.997705
138 3 0.249258 0.509266 0.997775
139 3 0.999235 0.753007 0.25076
140 3 0.240436 0.499074 0.251033
141 3 0.99892 0.754893 0.499752
142 3 0.240595 0.505713 0.497592
143 3 0.0089601 0.75021 0.751435
144 3 0.248529 0.502681 0.751139
145 3 0.50257 0.252812 0.9997
146 3 0.749084 0.000733956 0.998469
147 3 0.496479 0.24727 0.246543
148 3 0.758157 0.997123 0.251583
149 3 0.491764 0.250756 0.504171
150 3 0.748139 0.00115483 0.501673
151 3 0.503979 0.255586 0.752934
152 3 0.745925 0.998339 0.752949
153 3 0.507986 0.750737 0.00172254
154 3 0.746642 0.501751 0.000355901
155 3 0.509484 0.74998 0.253116
156 3 0.745596 0.491401 0.24864
157 3 0.504446 0.752863 0.508041
158 3 0.739343 0.500321 0.501335
159 3 0.510711 0.739624 0.75273
160 3 0.762768 0.497628 0.749976
ITEM: TIMESTEP
1500
ITEM: NUMBER OF ATOMS
160
ITEM: BOX BOUNDS xy xz yz pp pp pp
7.3316567502966568e-01 1.7070710736436322e+01 5.7546242361105780e-03
4.0028754516153064e-01 1.6804133482165934e+01 8.6121787229871016e-02
9.2139484258736537e-01 2.4022605157412691e+01 5.2421027327513268e-02
ITEM: ATOMS id type xs ys zs
1 1 0.230365 0.257476 0.134541
2 1 0.256075 0.25628 0.369684
3 1 0.0162981 0.995591 0.373282
4 1 0.471563 0.503244 0.123594
5 1 0.253611 0.251424 0.622521
6 1 0.247312 0.249393 0.872315
7 1 0.00677928 0.987833 0.865497
8 1 0.485988 0.507547 0.631102
9 1 0.244675 0.743303 0.129874
10 1 0.264278 0.754884 0.371039
11 1 0.00549564 0.498042 0.371009
12 1 0.483773 0.0202523 0.122788
13 1 0.232218 0.742001 0.626844
14 1 0.249291 0.775456 0.871212
15 1 0.0154445 0.498231 0.877069
16 1 0.503885 0.998674 0.632195
17 1 0.739549 0.248293 0.115829
18 1 0.754282 0.236508 0.369299
19 1 0.519355 0.985621 0.376956
20 1 0.990533 0.502696 0.123931
21 1 0.74183 0.259944 0.625331
22 1 0.762807 0.239254 0.864951
23 1 0.505393 0.00717353 0.876555
24 1 0.990404 0.499449 0.624985
25 1 0.742421 0.750611 0.138327
26 1 0.748248 0.739506 0.383788
27 1 0.501946 0.501409 0.380868
28 1 0.989713 0.00141 0.120447
29 1 0.751555 0.75611 0.620949
30 1 0.752322 0.734583 0.875157
31 1 0.516463 0.493453 0.882378
32 1 0.984786 0.997612 0.625766
33 2 0.999706 0.265913 0.121519
34 2 0.480808 0.235239 0.37723
35 2 0.242678 0.0103612 0.378679
36 2 0.231334 0.475988 0.12477
37 2 0.14469 0.363152 0.477517
38 2 0.351555 0.143045 0.024815
39 2 0.111962 0.105087 0.00949318
40 2 0.401088 0.402866 0.498617
41 2 0.352798 0.150078 0.241805
42 2 0.125264 0.359816 0.265872
43 2 0.387107 0.389347 0.256533
44 2 0.109563 0.106525 0.233804
45 2 0.99142 0.280419 0.624963
46 2 0.491386 0.217665 0.876122
47 2 0.242052 0.0266941 0.873231
48 2 0.248188 0.473651 0.623648
49 2 0.133645 0.361543 0.973691
50 2 0.352313 0.152749 0.512967
51 2 0.121833 0.117203 0.510942
52 2 0.379014 0.39136 0.986233
53 2 0.360969 0.144239 0.740341
54 2 0.157416 0.349282 0.758007
55 2 0.403114 0.394075 0.756644
56 2 0.106458 0.104113 0.731579
57 2 0.0190025 0.765829 0.121766
58 2 0.500892 0.726942 0.381195
59 2 0.265155 0.527439 0.371911
60 2 0.271935 0.960662 0.123731
61 2 0.155438 0.854745 0.494214
62 2 0.35637 0.647484 0.0204575
63 2 0.0971129 0.607679 0.997579
64 2 0.402575 0.894846 0.489402
65 2 0.367241 0.637086 0.237813
66 2 0.151153 0.841373 0.257748
67 2 0.392116 0.883211 0.2724
68 2 0.116888 0.609081 0.252044
69 2 0.00946795 0.774215 0.623286
70 2 0.481593 0.70371 0.875588
71 2 0.248055 0.538033 0.872028
72 2 0.268242 0.979244 0.623833
73 2 0.139962 0.860869 0.97677
74 2 0.357389 0.653833 0.512084
75 2 0.105427 0.603292 0.514402
76 2 0.386105 0.887198 0.982304
77 2 0.354577 0.640045 0.730938
78 2 0.145557 0.862266 0.753528
79 2 0.395458 0.900356 0.766842
80 2 0.109569 0.614994 0.73012
81 2 0.503125 0.273872 0.123661
82 2 0.987697 0.217484 0.373689
83 2 0.761 0.0126825 0.381207
84 2 0.743788 0.468476 0.124825
85 2 0.650048 0.359015 0.489906
86 2 0.850034 0.149074 0.000732018
87 2 0.596648 0.102157 0.0168104
88 2 0.888889 0.404263 0.480398
89 2 0.856929 0.142779 0.232676
90 2 0.645282 0.354715 0.263371
91 2 0.886969 0.391797 0.259135
92 2 0.595355 0.0978187 0.251088
93 2 0.50467 0.269661 0.624849
94 2 0.999951 0.213851 0.867905
95 2 0.750054 0.0184459 0.876256
96 2 0.756336 0.478044 0.625838
97 2 0.644176 0.349433 0.981932
98 2 0.859332 0.152717 0.516011
99 2 0.609321 0.112135 0.498078
100 2 0.900756 0.397278 0.992302
101 2 0.857314 0.147281 0.743174
102 2 0.65035 0.346238 0.756807
103 2 0.897064 0.381855 0.770384
104 2 0.602882 0.108316 0.743914
105 2 0.50288 0.779331 0.130127
106 2 0.984065 0.755084 0.374151
107 2 0.750991 0.535227 0.374231
108 2 0.739332 0.982222 0.125744
109 2 0.649903 0.86034 0.486472
110 2 0.858288 0.648679 0.0197836
111 2 0.609269 0.601824 0.00817871
112 2 0.895991 0.903044 0.504946
113 2 0.872924 0.629614 0.231514
114 2 0.650372 0.853584 0.265458
115 2 0.903202 0.893623 0.249237
116 2 0.608298 0.603052 0.234915
117 2 0.514148 0.782563 0.629907
118 2 0.979423 0.743062 0.872747
119 2 0.733216 0.520688 0.87549
120 2 0.736464 0.984517 0.630709
121 2 0.631795 0.857883 0.981189
122 2 0.85802 0.641288 0.503808
123 2 0.601698 0.609587 0.522746
124 2 0.896951 0.902231 0.994622
125 2 0.86637 0.641413 0.738585
126 2 0.647689 0.845707 0.771463
127 2 0.881175 0.88651 0.760232
128 2 0.610437 0.603296 0.742113
129 3 0.999289 0.2493 0.992899
130 3 0.247486 0.997524 0.999097
131 3 0.997786 0.244213 0.250833
132 3 0.250968 0.991935 0.246017
133 3 0.998854 0.253509 0.501021
134 3 0.259058 0.00594312 0.500881
135 3 0.00226738 0.24286 0.748545
136 3 0.256878 0.00287246 0.748491
137 3 0.994026 0.758142 0.997286
138 3 0.244916 0.505144 0.994606
139 3 0.00642523 0.749571 0.248407
140 3 0.248444 0.500319 0.248231
141 3 0.00863004 0.749983 0.498982
142 3 0.259887 0.507384 0.496389
143 3 0.00101034 0.753501 0.749111
144 3 0.252373 0.500151 0.749658
145 3 0.4849 0.247517 0.00136561
146 3 0.745143 0.997053 0.997805
147 3 0.500796 0.249686 0.25182
148 3 0.760015 0.991937 0.257106
149 3 0.504582 0.249226 0.502965
150 3 0.752248 0.0069587 0.50289
151 3 0.504554 0.252417 0.74953
152 3 0.748074 0.00131637 0.754119
153 3 0.495921 0.747483 0.999616
154 3 0.749462 0.494501 0.00224447
155 3 0.503192 0.739898 0.252362
156 3 0.747872 0.499066 0.25196
157 3 0.502733 0.759153 0.50646
158 3 0.738749 0.507854 0.503317
159 3 0.504314 0.751497 0.754185
160 3 0.753246 0.491122 0.751492
ITEM: TIMESTEP
2000
ITEM: NUMBER OF ATOMS
160
ITEM: BOX BOUNDS xy xz yz pp pp pp
5.4076168271924341e-01 1.7276562378220170e+01 -7.7030613122302832e-02
3.9371300138103127e-01 1.6961399309474952e+01 1.8235467406170183e-01
8.2800658449848874e-01 2.4115993415501606e+01 2.0311231085607226e-01
ITEM: ATOMS id type xs ys zs
1 1 0.249743 0.262175 0.103209
2 1 0.254053 0.270161 0.37461
3 1 0.99982 0.00267462 0.362566
4 1 0.491434 0.51211 0.129983
5 1 0.245156 0.244968 0.625841
6 1 0.256131 0.269147 0.875184
7 1 0.00707123 0.00534847 0.870971
8 1 0.503302 0.49687 0.633747
9 1 0.242993 0.75211 0.134267
10 1 0.257088 0.747411 0.384716
11 1 0.00267737 0.48794 0.364652
12 1 0.50032 0.999551 0.137444
13 1 0.23604 0.744377 0.626122
14 1 0.254905 0.771275 0.87496
15 1 0.991689 0.487718 0.866217
16 1 0.501983 0.987725 0.618819
17 1 0.738995 0.25165 0.130162
18 1 0.730413 0.248774 0.379699
19 1 0.52048 0.00522412 0.383579
20 1 0.00606002 0.500424 0.128875
21 1 0.738628 0.250995 0.642896
22 1 0.760607 0.237286 0.888056
23 1 0.501098 0.988205 0.877161
24 1 0.992034 0.494895 0.626544
25 1 0.75821 0.753806 0.137603
26 1 0.769528 0.749481 0.378337
27 1 0.508235 0.5154 0.371549
28 1 0.00544413 0.00110745 0.127991
29 1 0.733983 0.736526 0.634192
30 1 0.749344 0.742237 0.881226
31 1 0.517517 0.496851 0.882522
32 1 0.990285 0.994481 0.625576
33 2 0.021553 0.267643 0.122515
34 2 0.501215 0.222918 0.37596
35 2 0.264338 0.0169928 0.37196
36 2 0.258986 0.472629 0.125186
37 2 0.127903 0.365412 0.478634
38 2 0.35868 0.145585 0.0107099
39 2 0.106833 0.113756 0.00372669
40 2 0.379507 0.387607 0.475724
41 2 0.373129 0.138989 0.222921
42 2 0.133652 0.360136 0.267867
43 2 0.387932 0.386124 0.266741
44 2 0.118838 0.103813 0.243879
45 2 0.0178192 0.26307 0.616641
46 2 0.492992 0.209873 0.875532
47 2 0.246946 0.0119081 0.873817
48 2 0.253106 0.469974 0.619545
49 2 0.134896 0.366084 0.983557
50 2 0.372548 0.135737 0.522381
51 2 0.116928 0.12216 0.494108
52 2 0.395206 0.396124 0.987447
53 2 0.347687 0.141477 0.73619
54 2 0.140552 0.366995 0.762449
55 2 0.386137 0.388402 0.774677
56 2 0.0947909 0.0982462 0.743205
57 2 0.00236585 0.793406 0.120868
58 2 0.481376 0.728249 0.37425
59 2 0.244377 0.53784 0.371692
60 2 0.227381 0.97544 0.127563
61 2 0.132061 0.870697 0.486894
62 2 0.358229 0.648137 0.0166644
63 2 0.106108 0.612563 0.0216096
64 2 0.385603 0.892378 0.494908
65 2 0.371348 0.628768 0.235003
66 2 0.155746 0.848315 0.262184
67 2 0.394365 0.886954 0.259706
68 2 0.11733 0.617295 0.222663
69 2 0.98175 0.773426 0.627789
70 2 0.485806 0.729434 0.875183
71 2 0.240912 0.540717 0.875669
72 2 0.248416 0.976793 0.623761
73 2 0.133899 0.86381 0.986716
74 2 0.353225 0.636399 0.511716
75 2 0.103845 0.617227 0.513727
76 2 0.383402 0.89382 0.997328
77 2 0.360277 0.639163 0.73022
78 2 0.133321 0.861206 0.751181
79 2 0.391764 0.889256 0.757309
80 2 0.11385 0.620013 0.728119
81 2 0.520507 0.287503 0.125301
82 2 0.969952 0.236893 0.371387
83 2 0.753646 0.0192633 0.372714
84 2 0.743016 0.483005 0.121061
85 2 0.646899 0.353063 0.491293
86 2 0.848501 0.137554 0.0193115
87 2 0.605431 0.105016 0.0241206
88 2 0.883124 0.38406 0.496455
89 2 0.861421 0.13941 0.232071
90 2 0.643842 0.365065 0.270817
91 2 0.893318 0.390655 0.241145
92 2 0.617419 0.118201 0.234303
93 2 0.501587 0.280619 0.627057
94 2 0.989934 0.229926 0.873331
95 2 0.73104 0.0256858 0.876107
96 2 0.751594 0.482643 0.626526
97 2 0.643029 0.360435 0.983724
98 2 0.86649 0.132307 0.520193
99 2 0.612868 0.11976 0.505607
100 2 0.905045 0.395368 0.00211869
101 2 0.853311 0.129876 0.740337
102 2 0.650205 0.341941 0.766831
103 2 0.886113 0.376759 0.740043
104 2 0.59994 0.106859 0.72895
105 2 0.5139 0.769129 0.126635
106 2 0.997775 0.728799 0.370724
107 2 0.77419 0.523846 0.374326
108 2 0.75058 0.961134 0.125299
109 2 0.642484 0.860091 0.487537
110 2 0.857915 0.645162 0.0123034
111 2 0.612313 0.614103 0.00639599
112 2 0.884614 0.888095 0.487374
113 2 0.873984 0.645035 0.238223
114 2 0.642139 0.867983 0.268288
115 2 0.886384 0.885004 0.257129
116 2 0.625176 0.613939 0.245231
117 2 0.520886 0.751772 0.624616
118 2 0.000160608 0.718204 0.877365
119 2 0.775083 0.513001 0.871664
120 2 0.741957 0.978063 0.627983
121 2 0.635933 0.852669 0.989096
122 2 0.85964 0.643465 0.511479
123 2 0.607506 0.607232 0.493873
124 2 0.890656 0.894008 0.98218
125 2 0.864523 0.637173 0.74092
126 2 0.637996 0.844803 0.762575
127 2 0.87907 0.885843 0.772215
128 2 0.606608 0.589903 0.752944
129 3 0.989783 0.248647 0.99734
130 3 0.248078 0.0127317 0.00338908
131 3 0.00156036 0.248708 0.248085
132 3 0.258416 0.000384357 0.25451
133 3 0.997217 0.243991 0.492088
134 3 0.249703 0.00261073 0.501947
135 3 0.00187549 0.244363 0.744625
136 3 0.247757 0.998739 0.751408
137 3 0.999677 0.756719 0.00119847
138 3 0.251321 0.50837 0.00110441
139 3 0.00744126 0.762892 0.246138
140 3 0.246307 0.50262 0.244551
141 3 0.995742 0.755476 0.498259
142 3 0.238094 0.504622 0.501135
143 3 0.998282 0.744984 0.75331
144 3 0.247064 0.501592 0.742379
145 3 0.503412 0.257132 0.00504131
146 3 0.743268 0.993322 0.00415836
147 3 0.502858 0.256759 0.250221
148 3 0.751511 0.99986 0.245794
149 3 0.499727 0.255037 0.500727
150 3 0.753589 0.00389858 0.500106
151 3 0.498086 0.246155 0.753445
152 3 0.741886 0.000492327 0.753413
153 3 0.498149 0.7466 0.999998
154 3 0.758356 0.503201 0.00116018
155 3 0.503702 0.740289 0.249763
156 3 0.755533 0.493832 0.249707
157 3 0.498942 0.746236 0.498754
158 3 0.751671 0.506487 0.500885
159 3 0.496081 0.745849 0.75255
160 3 0.755825 0.490634 0.74765
ITEM: TIMESTEP
2500
ITEM: NUMBER OF ATOMS
160
ITEM: BOX BOUNDS xy xz yz pp pp pp
5.8350403101379056e-01 1.7035089856583177e+01 1.8627303728410680e-02
2.8060347735331326e-01 1.6725416931127395e+01 -1.1203341613140884e-01
9.0616550752213076e-01 2.4037834492477966e+01 -1.4597959151915912e-01
ITEM: ATOMS id type xs ys zs
1 1 0.228027 0.247571 0.134969
2 1 0.252846 0.270055 0.373528
3 1 0.00478489 0.000481231 0.380372
4 1 0.499999 0.501934 0.125619
5 1 0.242358 0.245429 0.617533
6 1 0.258012 0.261653 0.872565
7 1 0.0131048 0.998777 0.870704
8 1 0.488837 0.496634 0.622592
9 1 0.244619 0.743408 0.118967
10 1 0.266421 0.736885 0.374018
11 1 0.980624 0.499185 0.376548
12 1 0.512966 0.00731311 0.123414
13 1 0.243207 0.758148 0.621924
14 1 0.254201 0.748942 0.87495
15 1 0.022067 0.508028 0.867595
16 1 0.490437 0.992542 0.621988
17 1 0.74762 0.250269 0.122343
18 1 0.760974 0.236628 0.370583
19 1 0.488513 0.0155356 0.368733
20 1 0.00921031 0.499146 0.118192
21 1 0.745334 0.250704 0.629524
22 1 0.775062 0.266329 0.868736
23 1 0.518007 0.996407 0.875872
24 1 0.00395477 0.496237 0.622342
25 1 0.72421 0.732962 0.133482
26 1 0.762711 0.744913 0.371548
27 1 0.512676 0.472983 0.382523
28 1 0.99053 0.00193321 0.121474
29 1 0.746898 0.760152 0.637383
30 1 0.76205 0.749991 0.883715
31 1 0.508242 0.502081 0.864231
32 1 0.000653108 0.00983738 0.619511
33 2 0.000733059 0.272063 0.125324
34 2 0.484266 0.245662 0.371585
35 2 0.256806 0.0384059 0.377637
36 2 0.247519 0.470472 0.121246
37 2 0.137384 0.358982 0.494717
38 2 0.361771 0.145045 0.0150009
39 2 0.104836 0.109725 0.0183903
40 2 0.379459 0.38212 0.498354
41 2 0.363115 0.139521 0.237007
42 2 0.144644 0.354965 0.255945
43 2 0.396939 0.406074 0.251246
44 2 0.110294 0.111047 0.23844
45 2 0.994046 0.278794 0.624796
46 2 0.489201 0.233319 0.876742
47 2 0.244125 0.0369487 0.873716
48 2 0.240533 0.480145 0.6219
49 2 0.148127 0.361688 0.992866
50 2 0.36775 0.134577 0.524927
51 2 0.113211 0.114275 0.504194
52 2 0.396002 0.397942 0.994606
53 2 0.360858 0.135873 0.732528
54 2 0.137369 0.364557 0.767542
55 2 0.394812 0.392932 0.758433
56 2 0.112131 0.118851 0.720581
57 2 0.0227347 0.781677 0.122618
58 2 0.492305 0.708793 0.374902
59 2 0.257545 0.509881 0.371052
60 2 0.246811 0.955743 0.128103
61 2 0.123738 0.872467 0.482126
62 2 0.352528 0.651073 0.0115095
63 2 0.108192 0.607574 0.997728
64 2 0.372794 0.87368 0.486137
65 2 0.355365 0.653047 0.232985
66 2 0.152552 0.85267 0.2723
67 2 0.397649 0.888942 0.264275
68 2 0.111 0.604069 0.238683