ITEM: TIMESTEP
0
ITEM: NUMBER OF ATOMS
160
ITEM: BOX BOUNDS xy xz yz pp pp pp
8.8535171135816348e-01 1.6826648288641827e+01 0.0000000000000000e+00
4.0104672771464506e-01 1.6750953272285358e+01 0.0000000000000000e+00
9.4288034741806370e-01 2.4001119652581934e+01 0.0000000000000000e+00
ITEM: ATOMS id type xs ys zs
1 1 0.229937 0.252531 0.125
2 1 0.270063 0.247469 0.375
3 1 0.0200627 0.00253074 0.375
4 1 0.479937 0.497469 0.125
5 1 0.229937 0.252531 0.625
6 1 0.270063 0.247469 0.875
7 1 0.0200627 0.00253074 0.875
8 1 0.479937 0.497469 0.625
9 1 0.229937 0.752531 0.125
10 1 0.270063 0.747469 0.375
11 1 0.0200627 0.502531 0.375
12 1 0.479937 0.997469 0.125
13 1 0.229937 0.752531 0.625
14 1 0.270063 0.747469 0.875
15 1 0.0200627 0.502531 0.875
16 1 0.479937 0.997469 0.625
17 1 0.729937 0.252531 0.125
18 1 0.770063 0.247469 0.375
19 1 0.520063 0.00253074 0.375
20 1 0.979937 0.497469 0.125
21 1 0.729937 0.252531 0.625
22 1 0.770063 0.247469 0.875
23 1 0.520063 0.00253074 0.875
24 1 0.979937 0.497469 0.625
25 1 0.729937 0.752531 0.125
26 1 0.770063 0.747469 0.375
27 1 0.520063 0.502531 0.375
28 1 0.979937 0.997469 0.125
29 1 0.729937 0.752531 0.625
30 1 0.770063 0.747469 0.875
31 1 0.520063 0.502531 0.875
32 1 0.979937 0.997469 0.625
33 2 0.000565385 0.28097 0.125
34 2 0.499435 0.21903 0.375
35 2 0.249435 0.0309696 0.375
36 2 0.250565 0.46903 0.125
37 2 0.152662 0.348678 0.482136
38 2 0.347338 0.151322 0.0178638
39 2 0.0973378 0.0986781 0.0178638
40 2 0.402662 0.401322 0.482136
41 2 0.347338 0.151322 0.232136
42 2 0.152662 0.348678 0.267864
43 2 0.402662 0.401322 0.267864
44 2 0.0973378 0.0986781 0.232136
45 2 0.000565385 0.28097 0.625
46 2 0.499435 0.21903 0.875
47 2 0.249435 0.0309696 0.875
48 2 0.250565 0.46903 0.625
49 2 0.152662 0.348678 0.982136
50 2 0.347338 0.151322 0.517864
51 2 0.0973378 0.0986781 0.517864
52 2 0.402662 0.401322 0.982136
53 2 0.347338 0.151322 0.732136
54 2 0.152662 0.348678 0.767864
55 2 0.402662 0.401322 0.767864
56 2 0.0973378 0.0986781 0.732136
57 2 0.000565385 0.78097 0.125
58 2 0.499435 0.71903 0.375
59 2 0.249435 0.53097 0.375
60 2 0.250565 0.96903 0.125
61 2 0.152662 0.848678 0.482136
62 2 0.347338 0.651322 0.0178638
63 2 0.0973378 0.598678 0.0178638
64 2 0.402662 0.901322 0.482136
65 2 0.347338 0.651322 0.232136
66 2 0.152662 0.848678 0.267864
67 2 0.402662 0.901322 0.267864
68 2 0.0973378 0.598678 0.232136
69 2 0.000565385 0.78097 0.625
70 2 0.499435 0.71903 0.875
71 2 0.249435 0.53097 0.875
72 2 0.250565 0.96903 0.625
73 2 0.152662 0.848678 0.982136
74 2 0.347338 0.651322 0.517864
75 2 0.0973378 0.598678 0.517864
76 2 0.402662 0.901322 0.982136
77 2 0.347338 0.651322 0.732136
78 2 0.152662 0.848678 0.767864
79 2 0.402662 0.901322 0.767864
80 2 0.0973378 0.598678 0.732136
81 2 0.500565 0.28097 0.125
82 2 0.999435 0.21903 0.375
83 2 0.749435 0.0309696 0.375
84 2 0.750565 0.46903 0.125
85 2 0.652662 0.348678 0.482136
86 2 0.847338 0.151322 0.0178638
87 2 0.597338 0.0986781 0.0178638
88 2 0.902662 0.401322 0.482136
89 2 0.847338 0.151322 0.232136
90 2 0.652662 0.348678 0.267864
91 2 0.902662 0.401322 0.267864
92 2 0.597338 0.0986781 0.232136
93 2 0.500565 0.28097 0.625
94 2 0.999435 0.21903 0.875
95 2 0.749435 0.0309696 0.875
96 2 0.750565 0.46903 0.625
97 2 0.652662 0.348678 0.982136
98 2 0.847338 0.151322 0.517864
99 2 0.597338 0.0986781 0.517864
100 2 0.902662 0.401322 0.982136
101 2 0.847338 0.151322 0.732136
102 2 0.652662 0.348678 0.767864
103 2 0.902662 0.401322 0.767864
104 2 0.597338 0.0986781 0.732136
105 2 0.500565 0.78097 0.125
106 2 0.999435 0.71903 0.375
107 2 0.749435 0.53097 0.375
108 2 0.750565 0.96903 0.125
109 2 0.652662 0.848678 0.482136
110 2 0.847338 0.651322 0.0178638
111 2 0.597338 0.598678 0.0178638
112 2 0.902662 0.901322 0.482136
113 2 0.847338 0.651322 0.232136
114 2 0.652662 0.848678 0.267864
115 2 0.902662 0.901322 0.267864
116 2 0.597338 0.598678 0.232136
117 2 0.500565 0.78097 0.625
118 2 0.999435 0.71903 0.875
119 2 0.749435 0.53097 0.875
120 2 0.750565 0.96903 0.625
121 2 0.652662 0.848678 0.982136
122 2 0.847338 0.651322 0.517864
123 2 0.597338 0.598678 0.517864
124 2 0.902662 0.901322 0.982136
125 2 0.847338 0.651322 0.732136
126 2 0.652662 0.848678 0.767864
127 2 0.902662 0.901322 0.767864
128 2 0.597338 0.598678 0.732136
129 3 2.48561e-14 0.25 1
130 3 0.25 1 1.06895e-13
131 3 2.3549e-10 0.25 0.25
132 3 0.25 1 0.25
133 3 1 0.25 0.5
134 3 0.25 1 0.5
135 3 1 0.25 0.75
136 3 0.25 1.54406e-09 0.75
137 3 1 0.75 4.46632e-13
138 3 0.25 0.5 1.54668e-13
139 3 2.35255e-10 0.75 0.25
140 3 0.25 0.5 0.25
141 3 9.08164e-14 0.75 0.5
142 3 0.25 0.5 0.5
143 3 1 0.75 0.75
144 3 0.25 0.5 0.75
145 3 0.5 0.25 1
146 3 0.75 1 2.823e-13
147 3 0.5 0.25 0.25
148 3 0.75 1 0.25
149 3 0.5 0.25 0.5
150 3 0.75 9.5035e-14 0.5
151 3 0.5 0.25 0.75
152 3 0.75 1.54396e-09 0.75
153 3 0.5 0.75 5.47421e-13
154 3 0.75 0.5 2.56035e-13
155 3 0.5 0.75 0.25
156 3 0.75 0.5 0.25
157 3 0.5 0.75 0.5
158 3 0.75 0.5 0.5
159 3 0.5 0.75 0.75
160 3 0.75 0.5 0.75
ITEM: TIMESTEP
500
ITEM: NUMBER OF ATOMS
160
ITEM: BOX BOUNDS xy xz yz pp pp pp
8.8535171135816348e-01 1.6826648288641827e+01 0.0000000000000000e+00
4.0104672771464506e-01 1.6750953272285358e+01 0.0000000000000000e+00
9.4288034741806370e-01 2.4001119652581934e+01 0.0000000000000000e+00
ITEM: ATOMS id type xs ys zs
1 1 0.253604 0.239885 0.122771
2 1 0.254917 0.251295 0.37578
3 1 0.00621969 0.999075 0.377055
4 1 0.496109 0.50353 0.119749
5 1 0.246316 0.239707 0.625453
6 1 0.254524 0.249134 0.876837
7 1 0.999445 0.994151 0.8728
8 1 0.496888 0.500769 0.621516
9 1 0.246805 0.747305 0.12496
10 1 0.255553 0.757204 0.373499
11 1 0.00280124 0.498821 0.376062
12 1 0.498615 0.00403402 0.124302
13 1 0.247387 0.757049 0.62548
14 1 0.25579 0.75317 0.879875
15 1 0.997937 0.49619 0.870803
16 1 0.49625 0.0094261 0.6294
17 1 0.741928 0.255612 0.124154
18 1 0.757951 0.251741 0.375471
19 1 0.500815 0.00159425 0.376019
20 1 0.00688404 0.499231 0.122918
21 1 0.745222 0.251613 0.624618
22 1 0.755986 0.256005 0.875287
23 1 0.500511 0.999869 0.877185
24 1 0.997898 0.502509 0.622214
25 1 0.74723 0.744393 0.122697
26 1 0.753839 0.742597 0.374462
27 1 0.499578 0.486593 0.375436
28 1 0.99744 0.00711947 0.125286
29 1 0.750632 0.739925 0.6267
30 1 0.752669 0.752188 0.876201
31 1 0.501212 0.495373 0.872176
32 1 0.000390448 0.00637827 0.621959
33 2 0.997005 0.232124 0.127354
34 2 0.504062 0.258518 0.375203
35 2 0.252714 0.99105 0.37543
36 2 0.252006 0.515873 0.124314
37 2 0.115475 0.379397 0.509284
38 2 0.375948 0.122295 0.988364
39 2 0.131253 0.131296 0.992713
40 2 0.363213 0.368817 0.510549
41 2 0.386243 0.121732 0.259487
42 2 0.120967 0.378009 0.233663
43 2 0.364575 0.365631 0.239764
44 2 0.137936 0.131563 0.258691
45 2 0.994713 0.233554 0.626486
46 2 0.497817 0.264311 0.875671
47 2 0.246982 0.991227 0.875096
48 2 0.250478 0.515259 0.624611
49 2 0.119532 0.384336 0.0118144
50 2 0.383491 0.121352 0.495629
51 2 0.136341 0.131925 0.492385
52 2 0.367666 0.365441 0.0125732
53 2 0.378864 0.119947 0.760975
54 2 0.112756 0.38355 0.737558
55 2 0.358236 0.361917 0.737491
56 2 0.130602 0.13028 0.762098
57 2 0.00183545 0.738726 0.124732
58 2 0.50103 0.765192 0.375334
59 2 0.251222 0.487602 0.372423
60 2 0.256731 0.00986317 0.125943
61 2 0.119532 0.881875 0.506667
62 2 0.385286 0.617209 0.98635
63 2 0.133028 0.632478 0.987773
64 2 0.364969 0.864862 0.511238
65 2 0.387452 0.618529 0.258229
66 2 0.1143 0.886082 0.241071
67 2 0.367287 0.86604 0.241283
68 2 0.137891 0.633603 0.262971
69 2 0.00232674 0.746878 0.625356
70 2 0.502134 0.770183 0.875547
71 2 0.252758 0.482749 0.875203
72 2 0.255637 0.00855122 0.625992
73 2 0.124886 0.8774 0.0110027
74 2 0.388472 0.615964 0.481851
75 2 0.135153 0.636942 0.490478
76 2 0.369674 0.866819 0.0139695
77 2 0.38229 0.615548 0.766063
78 2 0.115061 0.88327 0.737271
79 2 0.361399 0.861548 0.74288
80 2 0.133945 0.636229 0.76354
81 2 0.502355 0.238862 0.125105
82 2 0.999628 0.26416 0.375703
83 2 0.74344 0.985108 0.376044
84 2 0.757754 0.513476 0.123485
85 2 0.6168 0.383211 0.507533
86 2 0.885051 0.119794 0.986798
87 2 0.632165 0.131589 0.987446
88 2 0.865946 0.365999 0.509423
89 2 0.88489 0.111921 0.264531
90 2 0.616875 0.384986 0.238758
91 2 0.865664 0.366926 0.240103
92 2 0.634751 0.136451 0.26067
93 2 0.499078 0.236334 0.625505
94 2 0.999957 0.266762 0.873349
95 2 0.751092 0.982484 0.873444
96 2 0.750686 0.511226 0.626045
97 2 0.622137 0.376219 0.00911903
98 2 0.888635 0.113997 0.491772
99 2 0.631391 0.132835 0.487434
100 2 0.867902 0.369807 0.0102358
101 2 0.884551 0.112193 0.757344
102 2 0.610598 0.385934 0.740952
103 2 0.865311 0.368 0.743261
104 2 0.628753 0.128045 0.764907
105 2 0.501862 0.728413 0.123239
106 2 0.996461 0.77097 0.373994
107 2 0.747778 0.487759 0.374228
108 2 0.748916 0.0193614 0.124068
109 2 0.607763 0.890512 0.515738
110 2 0.882573 0.619407 0.986799
111 2 0.632971 0.629163 0.987472
112 2 0.866059 0.872817 0.511538
113 2 0.884874 0.613038 0.259325
114 2 0.617525 0.88049 0.233382
115 2 0.865536 0.861922 0.239162
116 2 0.634297 0.636361 0.259891
117 2 0.49762 0.730374 0.622731
118 2 0.997504 0.761869 0.876689
119 2 0.741566 0.487293 0.876476
120 2 0.75178 0.012249 0.623443
121 2 0.615296 0.882859 0.0112218
122 2 0.8823 0.618588 0.493488
123 2 0.637858 0.634997 0.492751
124 2 0.86814 0.870339 0.00832119
125 2 0.880178 0.615741 0.757229
126 2 0.604831 0.884213 0.739782
127 2 0.861618 0.865827 0.74084
128 2 0.634173 0.63171 0.765086
129 3 0.000208836 0.252291 0.000829309
130 3 0.245976 0.000338034 0.00227028
131 3 0.997831 0.249653 0.249522
132 3 0.255133 0.998167 0.25064
133 3 0.000143914 0.249495 0.50149
134 3 0.253905 0.00225756 0.500291
135 3 0.999991 0.251171 0.747524
136 3 0.249742 0.995634 0.75114
137 3 0.0018338 0.745513 0.000154428
138 3 0.252474 0.497573 0.999144
139 3 0.99979 0.749614 0.250428
140 3 0.251988 0.499839 0.247255
141 3 0.999303 0.751154 0.501395
142 3 0.250679 0.502014 0.499033
143 3 0.997124 0.750338 0.751672
144 3 0.249669 0.49961 0.750652
145 3 0.49772 0.247736 0.998726
146 3 0.749544 0.000259007 0.998418
147 3 0.500361 0.253028 0.250413
148 3 0.75093 0.998781 0.248859
149 3 0.498421 0.252899 0.497872
150 3 0.748365 0.00156799 0.49976
151 3 0.496687 0.247825 0.753339
152 3 0.746855 2.58968e-05 0.751511
153 3 0.499991 0.751194 0.00192734
154 3 0.748695 0.501519 0.999768
155 3 0.500161 0.752501 0.249932
156 3 0.749261 0.502176 0.25051
157 3 0.501186 0.754769 0.496914
158 3 0.75231 0.500744 0.501332
159 3 0.501012 0.747074 0.750282
160 3 0.747534 0.499877 0.750201
ITEM: TIMESTEP
1000
ITEM: NUMBER OF ATOMS
160
ITEM: BOX BOUNDS xy xz yz pp pp pp
8.8535171135816348e-01 1.6826648288641827e+01 0.0000000000000000e+00
4.0104672771464506e-01 1.6750953272285358e+01 0.0000000000000000e+00
9.4288034741806370e-01 2.4001119652581934e+01 0.0000000000000000e+00
ITEM: ATOMS id type xs ys zs
1 1 0.246424 0.246144 0.119924
2 1 0.246605 0.24767 0.373929
3 1 0.996469 0.00193151 0.377806
4 1 0.496205 0.503919 0.124852
5 1 0.243125 0.250399 0.620323
6 1 0.255543 0.250613 0.876928
7 1 0.000673772 0.997493 0.875602
8 1 0.485487 0.495459 0.625571
9 1 0.246716 0.749573 0.121726
10 1 0.254842 0.752121 0.381802
11 1 0.00525287 0.502984 0.379344
12 1 0.497742 0.00248881 0.124573
13 1 0.252484 0.750822 0.620763
14 1 0.253586 0.744852 0.877717
15 1 0.000516535 0.494878 0.877483
16 1 0.499804 0.000865384 0.621329
17 1 0.748269 0.246541 0.125802
18 1 0.760467 0.249293 0.372411
19 1 0.510329 0.0026199 0.374753
20 1 0.993328 0.498795 0.126149
21 1 0.740489 0.252522 0.621109
22 1 0.753335 0.248701 0.871061
23 1 0.512833 0.994467 0.877858
24 1 0.990812 0.50197 0.620783
25 1 0.744114 0.746767 0.125643
26 1 0.757382 0.758943 0.378737
27 1 0.510927 0.496943 0.376043
28 1 0.998338 0.99904 0.125673
29 1 0.732155 0.745579 0.624213
30 1 0.753053 0.753436 0.875457
31 1 0.507843 0.502456 0.875556
32 1 0.995089 0.996408 0.625462
33 2 4.81943e-05 0.239487 0.123294
34 2 0.493111 0.259472 0.371994
35 2 0.252946 0.0008736 0.378885
36 2 0.247551 0.502168 0.12099
37 2 0.127329 0.372881 0.495865
38 2 0.379439 0.120735 0.00533616
39 2 0.128883 0.124569 0.000179171
40 2 0.376769 0.375523 0.499298
41 2 0.376758 0.124938 0.243983
42 2 0.124255 0.378833 0.250451
43 2 0.384805 0.383781 0.247439
44 2 0.122524 0.125357 0.253486
45 2 0.993624 0.240268 0.622542
46 2 0.499129 0.253475 0.874955
47 2 0.252485 0.989471 0.876155
48 2 0.244333 0.501902 0.624471
49 2 0.12431 0.377832 0.994242
50 2 0.373746 0.127695 0.499511
51 2 0.116345 0.121697 0.498269
52 2 0.375722 0.378788 0.995189
53 2 0.374471 0.122013 0.75608
54 2 0.132289 0.367346 0.750495
55 2 0.381083 0.379153 0.754659
56 2 0.123078 0.121994 0.747594
57 2 0.996013 0.740998 0.126412
58 2 0.506151 0.764047 0.372916
59 2 0.24765 0.492405 0.371178
60 2 0.245798 0.00561893 0.127457
61 2 0.127404 0.872419 0.498807
62 2 0.373193 0.629951 0.00105495
63 2 0.128026 0.628424 0.00282822
64 2 0.387594 0.882475 0.500912
65 2 0.374625 0.627743 0.246591
66 2 0.125157 0.881031 0.252974
67 2 0.382911 0.882964 0.252158
68 2 0.126708 0.626694 0.248951
69 2 0.998388 0.751143 0.625189
70 2 0.497392 0.753969 0.875703
71 2 0.245424 0.499204 0.876148
72 2 0.247464 0.00534446 0.624091
73 2 0.117115 0.881542 0.995481
74 2 0.368498 0.629324 0.504973
75 2 0.122447 0.620126 0.502079
76 2 0.378615 0.872249 0.999418
77 2 0.370862 0.621449 0.750229
78 2 0.126123 0.875793 0.755777
79 2 0.382013 0.877644 0.746737
80 2 0.118608 0.619746 0.745497
81 2 0.501409 0.242194 0.122695
82 2 0.00297336 0.252416 0.374014
83 2 0.752474 0.00564187 0.376457
84 2 0.748388 0.491997 0.125347
85 2 0.617523 0.378805 0.501859
86 2 0.8787 0.122131 0.010176
87 2 0.628577 0.124689 0.000864878
88 2 0.874436 0.377188 0.50316
89 2 0.879184 0.124664 0.245043
90 2 0.625355 0.372048 0.246233
91 2 0.874017 0.376161 0.250767
92 2 0.627362 0.125396 0.245545
93 2 0.496806 0.24121 0.625996
94 2 0.00115769 0.25593 0.876242
95 2 0.756361 0.997733 0.87699
96 2 0.741694 0.513314 0.624764
97 2 0.627364 0.372169 0.99584
98 2 0.866155 0.132013 0.498104
99 2 0.623336 0.125551 0.505602
100 2 0.883289 0.375498 0.00133188
101 2 0.878799 0.127117 0.750353
102 2 0.624411 0.372218 0.751389
103 2 0.880417 0.38045 0.752111
104 2 0.619356 0.119396 0.748595
105 2 0.499296 0.74167 0.125329
106 2 0.00604737 0.755597 0.375377
107 2 0.76385 0.495384 0.372968
108 2 0.746822 0.999592 0.125089
109 2 0.629978 0.869397 0.499173
110 2 0.877246 0.621143 0.00633057
111 2 0.62415 0.622693 0.00402421
112 2 0.878289 0.882733 0.496056
113 2 0.870762 0.630875 0.24741
114 2 0.630367 0.872413 0.252635
115 2 0.877417 0.877418 0.248821
116 2 0.619355 0.618184 0.248649
117 2 0.489075 0.743437 0.624266
118 2 0.00476554 0.750404 0.875989
119 2 0.756587 0.49577 0.877082
120 2 0.746005 0.0111793 0.625464
121 2 0.627216 0.872182 0.00129685
122 2 0.871168 0.625314 0.502289
123 2 0.619888 0.620416 0.496794
124 2 0.877454 0.872811 0.992325
125 2 0.868379 0.630412 0.746198
126 2 0.628289 0.86823 0.753596
127 2 0.871634 0.875199 0.752846
128 2 0.619003 0.619292 0.752656
129 3 0.00434171 0.252222 0.998995
130 3 0.248161 0.998147 0.00308377
131 3 0.00407439 0.25256 0.249113
132 3 0.248765 0.00597362 0.252526
133 3 0.997919 0.254072 0.500816
134 3 0.246618 0.00162907 0.501506
135 3 0.000504122 0.252538 0.747839
136 3 0.251335 0.00223107 0.752652
137 3 0.0022467 0.747795 0.998307
138 3 0.25105 0.502802 0.998025
139 3 0.0051906 0.751271 0.252734
140 3 0.249317 0.503433 0.245832
141 3 0.99831 0.748944 0.500859
142 3 0.249886 0.498441 0.495111
143 3 0.996228 0.750666 0.751032
144 3 0.249178 0.500442 0.75097
145 3 0.499696 0.246084 0.00017607
146 3 0.753421 0.996221 0.000874209
147 3 0.50189 0.250006 0.247998
148 3 0.752935 0.999689 0.249839
149 3 0.499556 0.24916 0.496331
150 3 0.745588 0.00294817 0.501059
151 3 0.498034 0.24847 0.752143
152 3 0.750676 0.000211196 0.752585
153 3 0.500577 0.745851 0.00372733
154 3 0.749939 0.49578 0.00159939
155 3 0.501273 0.751666 0.249731
156 3 0.749868 0.501297 0.248819
157 3 0.499279 0.748041 0.49815
158 3 0.746007 0.497969 0.499302
159 3 0.498378 0.749812 0.749316
160 3 0.748779 0.495932 0.750643
ITEM: TIMESTEP
1500
ITEM: NUMBER OF ATOMS
160
ITEM: BOX BOUNDS xy xz yz pp pp pp
8.8535171135816348e-01 1.6826648288641827e+01 0.0000000000000000e+00
4.0104672771464506e-01 1.6750953272285358e+01 0.0000000000000000e+00
9.4288034741806370e-01 2.4001119652581934e+01 0.0000000000000000e+00
ITEM: ATOMS id type xs ys zs
1 1 0.251761 0.245421 0.123428
2 1 0.239626 0.246133 0.381804
3 1 0.00115204 0.995631 0.36564
4 1 0.504999 0.500316 0.12372
5 1 0.241003 0.246135 0.625306
6 1 0.235142 0.251538 0.871091
7 1 0.996357 0.000279942 0.883555
8 1 0.49696 0.493509 0.623611
9 1 0.261142 0.748657 0.129508
10 1 0.247319 0.754978 0.371232
11 1 0.00245323 0.504717 0.378361
12 1 0.495239 0.999376 0.119367
13 1 0.254205 0.754499 0.62199
14 1 0.248245 0.75031 0.878024
15 1 0.999041 0.503391 0.878037
16 1 0.503324 0.00820793 0.624613
17 1 0.754252 0.257661 0.127598
18 1 0.753439 0.253895 0.373063
19 1 0.495216 0.0019633 0.377014
20 1 0.00637778 0.503647 0.126084
21 1 0.75794 0.248159 0.624016
22 1 0.747887 0.250357 0.880604
23 1 0.494596 0.00144085 0.879465
24 1 0.994573 0.492992 0.621775
25 1 0.748238 0.747616 0.124668
26 1 0.745885 0.752925 0.376502
27 1 0.493713 0.508385 0.3757
28 1 0.00449277 0.00557761 0.120419
29 1 0.759028 0.756067 0.623679
30 1 0.74639 0.748439 0.881107
31 1 0.504419 0.496215 0.877822
32 1 0.995799 0.00253933 0.625868
33 2 0.0131437 0.26882 0.125327
34 2 0.500268 0.242619 0.37582
35 2 0.248013 0.00915777 0.375522
36 2 0.256193 0.490262 0.12549
37 2 0.137756 0.363415 0.499653
38 2 0.3714 0.127208 0.00479075
39 2 0.122118 0.122059 0.00569731
40 2 0.387897 0.384099 0.491129
41 2 0.37365 0.122749 0.242126
42 2 0.134967 0.365677 0.257072
43 2 0.376351 0.377451 0.261137
44 2 0.12093 0.116601 0.240635
45 2 0.00166985 0.256855 0.623928
46 2 0.501269 0.241802 0.871332
47 2 0.248107 0.01628 0.873765
48 2 0.25702 0.47982 0.628049
49 2 0.133821 0.374946 0.9975
50 2 0.360908 0.134812 0.505529
51 2 0.117098 0.118514 0.50695
52 2 0.376398 0.380252 0.99108
53 2 0.36213 0.135661 0.745424
54 2 0.131248 0.365948 0.755711
55 2 0.383053 0.382578 0.757508
56 2 0.111377 0.111375 0.745446
57 2 0.0065047 0.766442 0.128153
58 2 0.493537 0.741351 0.376826
59 2 0.24954 0.516264 0.376924
60 2 0.254845 0.985348 0.12282
61 2 0.127528 0.867288 0.497557
62 2 0.376128 0.629355 0.999669
63 2 0.12913 0.626358 0.00732446
64 2 0.386299 0.883759 0.495759
65 2 0.374619 0.627027 0.242153
66 2 0.136559 0.868277 0.252117
67 2 0.381289 0.880502 0.256169
68 2 0.124966 0.619329 0.242768
69 2 0.997652 0.756559 0.62341
70 2 0.495532 0.731445 0.873169
71 2 0.245604 0.509735 0.877862
72 2 0.249837 0.988811 0.624726
73 2 0.132203 0.876671 0.99057
74 2 0.358614 0.640454 0.50331
75 2 0.119726 0.614176 0.507324
76 2 0.384474 0.883826 0.990588
77 2 0.360576 0.64601 0.74697
78 2 0.13401 0.860612 0.749066
79 2 0.381723 0.878356 0.753769
80 2 0.111927 0.609108 0.746197
81 2 0.503581 0.261894 0.124312
82 2 0.992401 0.237824 0.371389
83 2 0.740223 0.0102537 0.375684
84 2 0.757019 0.491744 0.126518
85 2 0.642507 0.361558 0.49341
86 2 0.87398 0.129147 0.00534171
87 2 0.618394 0.120437 0.00790043
88 2 0.888988 0.384061 0.489768
89 2 0.862184 0.137478 0.241836
90 2 0.633152 0.369493 0.259346
91 2 0.88383 0.382747 0.252932
92 2 0.617366 0.124031 0.244569
93 2 0.492874 0.253273 0.623996
94 2 0.993194 0.233503 0.872539
95 2 0.743135 0.0162785 0.875329
96 2 0.749917 0.494531 0.623239
97 2 0.631839 0.368335 0.997699
98 2 0.865653 0.134117 0.500968
99 2 0.608453 0.115032 0.505669
100 2 0.88873 0.384166 0.997911
101 2 0.860091 0.13061 0.746051
102 2 0.639063 0.35946 0.755871
103 2 0.883026 0.384988 0.755398
104 2 0.611908 0.111153 0.745864
105 2 0.50272 0.76619 0.124808
106 2 0.995967 0.74198 0.374924
107 2 0.756154 0.512958 0.377592
108 2 0.753506 0.984654 0.125515
109 2 0.636124 0.868952 0.502547
110 2 0.877462 0.631072 0.00385225
111 2 0.619907 0.616886 0.00233496
112 2 0.882678 0.886311 0.486461
113 2 0.869597 0.625268 0.240265
114 2 0.631161 0.862722 0.255342
115 2 0.878027 0.883775 0.254024
116 2 0.614128 0.615023 0.246992
117 2 0.49996 0.746126 0.624048
118 2 0.994472 0.749297 0.877817
119 2 0.749229 0.504514 0.875869
120 2 0.74986 0.986931 0.626688
121 2 0.640023 0.865138 0.997157
122 2 0.860209 0.637309 0.508127
123 2 0.608373 0.613451 0.499106
124 2 0.877975 0.878827 0.997082
125 2 0.864881 0.629207 0.744293
126 2 0.638212 0.86304 0.761058
127 2 0.885395 0.87877 0.759496
128 2 0.608842 0.610981 0.740886
129 3 0.00565383 0.250467 0.999161
130 3 0.253127 0.000853642 0.999757
131 3 0.000785223 0.24936 0.248099
132 3 0.253069 0.998448 0.244751
133 3 0.999778 0.248485 0.500204
134 3 0.248555 0.998874 0.500709
135 3 0.996612 0.246761 0.747333
136 3 0.247355 0.995415 0.748478
137 3 0.00356785 0.752047 0.000984954
138 3 0.254695 0.504102 0.00142415
139 3 0.00212602 0.749729 0.252891
140 3 0.253736 0.497891 0.253767
141 3 0.995452 0.749483 0.499487
142 3 0.253679 0.497668 0.503943
143 3 0.000315313 0.746267 0.751067
144 3 0.249662 0.500188 0.751116
145 3 0.49841 0.252914 0.995644
146 3 0.751185 0.000782479 3.80091e-05
147 3 0.499958 0.254946 0.250781
148 3 0.745401 0.0012232 0.250233
149 3 0.496988 0.252542 0.499026
150 3 0.74903 0.0059687 0.499182
151 3 0.500153 0.247985 0.745164
152 3 0.749095 0.99806 0.7508
153 3 0.499765 0.754066 0.000432301
154 3 0.75243 0.501935 0.000632089
155 3 0.498026 0.747866 0.248394
156 3 0.749509 0.499659 0.254503
157 3 0.501543 0.75269 0.50208
158 3 0.747643 0.501121 0.500042
159 3 0.502437 0.748845 0.747098
160 3 0.74321 0.503328 0.748419
ITEM: TIMESTEP
2000
ITEM: NUMBER OF ATOMS
160
ITEM: BOX BOUNDS xy xz yz pp pp pp
8.8535171135816348e-01 1.6826648288641827e+01 0.0000000000000000e+00
4.0104672771464506e-01 1.6750953272285358e+01 0.0000000000000000e+00
9.4288034741806370e-01 2.4001119652581934e+01 0.0000000000000000e+00
ITEM: ATOMS id type xs ys zs
1 1 0.249953 0.240468 0.119963
2 1 0.25736 0.253425 0.367446
3 1 0.998823 0.997158 0.375726
4 1 0.502108 0.500382 0.126448
5 1 0.244481 0.243318 0.622719
6 1 0.249466 0.245874 0.878419
7 1 0.997396 0.00136131 0.874158
8 1 0.495329 0.501935 0.630379
9 1 0.256481 0.746368 0.120763
10 1 0.258059 0.756453 0.36615
11 1 0.000250993 0.500191 0.376145
12 1 0.506668 0.000152169 0.125025
13 1 0.236394 0.745615 0.628508
14 1 0.246152 0.748648 0.877219
15 1 0.999498 0.497587 0.87715
16 1 0.496212 0.00337107 0.620655
17 1 0.759327 0.248928 0.120739
18 1 0.751329 0.255889 0.370279
19 1 0.502988 0.995744 0.378549
20 1 0.996558 0.48904 0.12383
21 1 0.747299 0.250039 0.622762
22 1 0.74675 0.24337 0.873349
23 1 0.490852 0.00860308 0.87428
24 1 0.992313 0.500086 0.629931
25 1 0.763701 0.757898 0.117545
26 1 0.756821 0.746426 0.375233
27 1 0.502495 0.503209 0.367521
28 1 0.00919955 0.00060961 0.129551
29 1 0.747415 0.751372 0.630179
30 1 0.750249 0.754456 0.881233
31 1 0.4996 0.493765 0.878042
32 1 0.997996 0.988944 0.624542
33 2 0.00839508 0.247224 0.126388
34 2 0.512004 0.240264 0.376446
35 2 0.25278 0.00830352 0.373844
36 2 0.248904 0.484445 0.128274
37 2 0.125978 0.372716 0.496202
38 2 0.381219 0.116801 0.00579595
39 2 0.128542 0.123534 0.999112
40 2 0.374153 0.376925 0.504811
41 2 0.38679 0.124423 0.25191
42 2 0.129528 0.381076 0.256974
43 2 0.37581 0.376979 0.24948
44 2 0.131304 0.12855 0.243211
45 2 0.997925 0.253056 0.627455
46 2 0.502909 0.249248 0.874997
47 2 0.247263 0.000296871 0.879367
48 2 0.232963 0.505485 0.627633
49 2 0.129394 0.370001 0.99358
50 2 0.37217 0.125088 0.506137
51 2 0.122928 0.125526 0.49809
52 2 0.381865 0.376984 0.0091565
53 2 0.37473 0.127221 0.754555
54 2 0.131361 0.369019 0.750701
55 2 0.377536 0.380728 0.753009
56 2 0.127969 0.129336 0.746732
57 2 0.000891259 0.753312 0.124843
58 2 0.498829 0.753569 0.374997
59 2 0.254511 0.499869 0.373323
60 2 0.254894 0.00430185 0.124298
61 2 0.119553 0.866862 0.496444
62 2 0.372665 0.62633 0.995781
63 2 0.12046 0.622229 0.999401
64 2 0.37805 0.878626 0.498889
65 2 0.37629 0.633648 0.244093
66 2 0.134487 0.876183 0.254282
67 2 0.37587 0.873556 0.250651
68 2 0.120243 0.620718 0.244229
69 2 0.992325 0.750595 0.622595
70 2 0.506891 0.75476 0.871296
71 2 0.248312 0.495652 0.87642
72 2 0.245164 0.982941 0.62533
73 2 0.12211 0.878461 0.00455415
74 2 0.368245 0.629128 0.493753
75 2 0.113073 0.61669 0.502378
76 2 0.371596 0.872976 0.000757851
77 2 0.36709 0.627712 0.748031
78 2 0.127226 0.87167 0.749673
79 2 0.377589 0.883137 0.753431
80 2 0.118319 0.624856 0.752554
81 2 0.51123 0.261546 0.12377
82 2 0.00197217 0.252059 0.375479
83 2 0.757766 0.00489556 0.375851
84 2 0.749049 0.489824 0.123544
85 2 0.623906 0.375418 0.497736
86 2 0.877129 0.126263 0.00637471
87 2 0.624376 0.122994 0.997293
88 2 0.871181 0.371521 0.501854
89 2 0.881737 0.12821 0.246704
90 2 0.61388 0.387322 0.252425
91 2 0.875333 0.375205 0.243763
92 2 0.63784 0.134397 0.250224
93 2 0.48624 0.260773 0.627923
94 2 0.00626867 0.243485 0.87587
95 2 0.753745 0.00354221 0.870459
96 2 0.740562 0.487961 0.629148
97 2 0.62567 0.369028 0.994257
98 2 0.873146 0.124101 0.506314
99 2 0.61795 0.120575 0.501022
100 2 0.8747 0.365492 0.996684
101 2 0.878466 0.125922 0.745836
102 2 0.616147 0.382182 0.757089
103 2 0.869846 0.371582 0.762417
104 2 0.627078 0.131517 0.741893
105 2 0.514106 0.748464 0.124656
106 2 0.00694038 0.75513 0.370108
107 2 0.755133 0.498268 0.375535
108 2 0.745851 0.999155 0.127593
109 2 0.621977 0.869462 0.496653
110 2 0.871717 0.625145 0.000313164
111 2 0.620528 0.625234 0.999693
112 2 0.866623 0.872758 0.496144
113 2 0.872346 0.627679 0.247758
114 2 0.630484 0.876055 0.250707
115 2 0.877808 0.881209 0.241426
116 2 0.62525 0.626236 0.245398
117 2 0.490648 0.748526 0.62658
118 2 0.00474833 0.744593 0.874401
119 2 0.753379 0.50894 0.875602
120 2 0.739456 0.996393 0.62251
121 2 0.628819 0.873453 0.997942
122 2 0.866606 0.621743 0.506035
123 2 0.626295 0.620351 0.495653
124 2 0.876272 0.880004 0.00266275
125 2 0.869887 0.62378 0.746506
126 2 0.626552 0.876429 0.754606
127 2 0.869902 0.874813 0.754005
128 2 0.619737 0.626048 0.751761
129 3 0.00248231 0.246334 0.998039
130 3 0.252178 0.998526 0.00331569
131 3 0.00427602 0.257676 0.250572
132 3 0.259358 0.00493594 0.249662
133 3 0.997752 0.251657 0.502333
134 3 0.248259 0.99742 0.498657
135 3 0.00215322 0.250983 0.75093
136 3 0.248568 0.00406489 0.753861
137 3 0.99838 0.750853 0.999217
138 3 0.250261 0.49988 0.00158695
139 3 0.998834 0.754762 0.247893
140 3 0.2551 0.505258 0.24987
141 3 0.992007 0.743795 0.495982
142 3 0.248777 0.503306 0.500827
143 3 0.99832 0.752122 0.748318
144 3 0.243806 0.498199 0.752161
145 3 0.498377 0.245574 0.000499316
146 3 0.746027 0.998731 0.001885
147 3 0.502516 0.25391 0.248207
148 3 0.7551 0.99936 0.252864
149 3 0.496322 0.249364 0.499625
150 3 0.74732 0.996921 0.499664
151 3 0.497523 0.251333 0.751258
152 3 0.74625 0.00641439 0.747783
153 3 0.50347 0.749956 0.999701
154 3 0.748572 0.498076 0.00255079
155 3 0.507837 0.750938 0.248015
156 3 0.752305 0.501871 0.249317
157 3 0.500391 0.74445 0.499192
158 3 0.75126 0.495798 0.503771
159 3 0.495853 0.752722 0.749194
160 3 0.747037 0.499727 0.750867
ITEM: TIMESTEP
2500
ITEM: NUMBER OF ATOMS
160
ITEM: BOX BOUNDS xy xz yz pp pp pp
8.8535171135816348e-01 1.6826648288641827e+01 0.0000000000000000e+00
4.0104672771464506e-01 1.6750953272285358e+01 0.0000000000000000e+00
9.4288034741806370e-01 2.4001119652581934e+01 0.0000000000000000e+00
ITEM: ATOMS id type xs ys zs
1 1 0.257145 0.259181 0.127555
2 1 0.245696 0.243354 0.377319
3 1 0.996666 0.000316988 0.379223
4 1 0.507027 0.497109 0.127899
5 1 0.249924 0.243278 0.628185
6 1 0.24848 0.253875 0.879429
7 1 0.00314966 0.998477 0.869322
8 1 0.50817 0.490798 0.623463
9 1 0.243607 0.751322 0.127398
10 1 0.251715 0.749903 0.385625
11 1 0.998397 0.494483 0.375938
12 1 0.494743 0.990428 0.122503
13 1 0.255134 0.76045 0.618225
14 1 0.254835 0.740588 0.879144
15 1 0.00563451 0.502044 0.876712
16 1 0.498287 0.00390296 0.620428
17 1 0.752442 0.256255 0.117543
18 1 0.752547 0.247722 0.381027
19 1 0.494372 0.00309827 0.372651
20 1 0.00895867 0.512925 0.121391
21 1 0.744372 0.250017 0.624814
22 1 0.743709 0.257426 0.870889
23 1 0.491177 0.992988 0.875441
24 1 0.993362 0.500321 0.623778
25 1 0.75494 0.743894 0.123962
26 1 0.748452 0.758294 0.37577
27 1 0.499509 0.505775 0.37468
28 1 0.995796 0.995918 0.114259
29 1 0.750877 0.751685 0.625426
30 1 0.752393 0.756256 0.876104
31 1 0.502687 0.501051 0.872779
32 1 0.00305075 0.997731 0.624672
33 2 0.0010156 0.24354 0.12315
34 2 0.489252 0.253075 0.374756
35 2 0.242684 0.995945 0.372832
36 2 0.248184 0.510193 0.12655
37 2 0.121248 0.38208 0.501353
38 2 0.378421 0.118627 0.00407661
39 2 0.133653 0.132116 0.998975
40 2 0.369445 0.373184 0.502322
41 2 0.377307 0.11478 0.247662
42 2 0.129112 0.37753 0.243602
43 2 0.384772 0.377383 0.247587
44 2 0.128222 0.127357 0.260004
45 2 0.994126 0.250636 0.622213
46 2 0.494753 0.26616 0.873626
47 2 0.245813 0.992739 0.875311
48 2 0.255324 0.501296 0.624348
49 2 0.122125 0.382328 0.00335013
50 2 0.375406 0.121938 0.497542
51 2 0.124166 0.128993 0.498846
52 2 0.380366 0.371136 0.0025327
53 2 0.379427 0.116783 0.754496
54 2 0.120332 0.372166 0.747269
55 2 0.369252 0.374338 0.744752
56 2 0.127728 0.127054 0.756207
57 2 0.995374 0.750751 0.125424
58 2 0.498516 0.746813 0.375273
59 2 0.247697 0.496505 0.378951
60 2 0.246066 0.996212 0.124741
61 2 0.122323 0.887916 0.50004
62 2 0.38859 0.620262 0.00520834
63 2 0.140046 0.630741 0.995141
64 2 0.372299 0.875315 0.499849
65 2 0.386471 0.616796 0.256836
66 2 0.120702 0.875134 0.247224
67 2 0.37177 0.870625 0.245289
68 2 0.128724 0.625413 0.258553
69 2 0.00772952 0.741518 0.621358
70 2 0.500398 0.746153 0.873917
71 2 0.255078 0.488187 0.878998
72 2 0.253027 0.00862315 0.624331
73 2 0.124085 0.879311 0.998889
74 2 0.381777 0.62057 0.499236
75 2 0.131029 0.633936 0.494083
76 2 0.376532 0.874618 0.998362
77 2 0.368895 0.619775 0.750026
78 2 0.109445 0.883247 0.744785
79 2 0.366833 0.874256 0.745213
80 2 0.121374 0.621921 0.754762
81 2 0.512349 0.238926 0.121937
82 2 0.998021 0.255818 0.374235
83 2 0.751868 0.998428 0.379101