       N       E                     dE             d eps       ncg     rms          ort
DAV:   1     0.144835945529E+04    0.14484E+04   -0.10580E+05  1200   0.208E+03
DAV:   2     0.281842162069E+02   -0.14202E+04   -0.13560E+04  1200   0.277E+02
DAV:   3    -0.177686133039E+03   -0.20587E+03   -0.20415E+03  1200   0.126E+02
DAV:   4    -0.184367652079E+03   -0.66815E+01   -0.66386E+01  1200   0.242E+01
DAV:   5    -0.184566575986E+03   -0.19892E+00   -0.19880E+00  1200   0.404E+00
SDA:   6    -0.155158563830E+03    0.29408E+02   -0.19880E+00  1200   0.869E+02 0.000E+00
CGA:   7    -0.169016908667E+03   -0.13858E+02   -0.13795E+02  1200   0.525E+01-0.307E-01
CGA:   8    -0.170590812466E+03   -0.15739E+01   -0.15697E+01  1200   0.150E+01 0.252E-01
CGA:   9    -0.171068964977E+03   -0.47815E+00   -0.47886E+00  1200   0.461E+00-0.532E-02
CGA:  10    -0.171214105568E+03   -0.14514E+00   -0.14540E+00  1200   0.130E+00-0.211E-02
CGA:  11    -0.171262445286E+03   -0.48340E-01   -0.48462E-01  1200   0.360E-01-0.777E-03
CGA:  12    -0.171274102984E+03   -0.11658E-01   -0.11664E-01  1200   0.784E-02-0.433E-04
CGA:  13    -0.171276993848E+03   -0.28909E-02   -0.28889E-02  1200   0.184E-02 0.157E-04
CGA:  14    -0.171277665228E+03   -0.67138E-03   -0.66948E-03  1200   0.374E-03 0.148E-04
CGA:  15    -0.171277813176E+03   -0.14795E-03   -0.14676E-03  1200   0.869E-04 0.797E-05
CGA:  16    -0.171277850221E+03   -0.37045E-04   -0.36786E-04  1200   0.216E-04 0.155E-05
CGA:  17    -0.171277859382E+03   -0.91605E-05   -0.91140E-05  1200   0.607E-05 0.295E-06
CGA:  18    -0.171277861742E+03   -0.23601E-05   -0.23134E-05  1200   0.207E-05 0.419E-06
   1 F= -.17127786E+03 E0= -.17127786E+03  d E =-.171278E+03
       N       E                     dE             d eps       ncg     rms          ort
SDA:   1    -0.170801886873E+03    0.47597E+00    0.00000E+00  1200   0.146E+01 0.000E+00
CGA:   2    -0.171146215303E+03   -0.34433E+00   -0.34419E+00  1200   0.362E+00-0.940E-03
CGA:   3    -0.171259582925E+03   -0.11337E+00   -0.11336E+00  1200   0.733E-01 0.165E-03
CGA:   4    -0.171278006074E+03   -0.18423E-01   -0.18422E-01  1200   0.137E-01-0.283E-04
CGA:   5    -0.171281945354E+03   -0.39393E-02   -0.39395E-02  1200   0.280E-02-0.153E-04
CGA:   6    -0.171282938685E+03   -0.99333E-03   -0.99260E-03  1200   0.892E-03 0.912E-05
CGA:   7    -0.171283256071E+03   -0.31739E-03   -0.31673E-03  1200   0.276E-03 0.863E-05
CGA:   8    -0.171283354867E+03   -0.98796E-04   -0.98606E-04  1200   0.711E-04 0.266E-05
CGA:   9    -0.171283380457E+03   -0.25590E-04   -0.25643E-04  1200   0.173E-04-0.738E-06
CGA:  10    -0.171283386724E+03   -0.62678E-05   -0.63130E-05  1200   0.508E-05-0.572E-06
CGA:  11    -0.171283388384E+03   -0.16594E-05   -0.16597E-05  1200   0.156E-05-0.686E-08
   2 F= -.17128339E+03 E0= -.17128339E+03  d E =-.552664E-02
       N       E                     dE             d eps       ncg     rms          ort
SDA:   1    -0.171211761443E+03    0.71625E-01    0.00000E+00  1200   0.347E+00 0.000E+00
CGA:   2    -0.171294328668E+03   -0.82567E-01   -0.82588E-01  1200   0.872E-01-0.472E-05
CGA:   3    -0.171321552116E+03   -0.27223E-01   -0.27224E-01  1200   0.178E-01-0.174E-04
CGA:   4    -0.171325985848E+03   -0.44337E-02   -0.44341E-02  1200   0.329E-02 0.528E-05
CGA:   5    -0.171326932694E+03   -0.94685E-03   -0.94689E-03  1200   0.670E-03 0.723E-05
CGA:   6    -0.171327172676E+03   -0.23998E-03   -0.24022E-03  1200   0.217E-03-0.374E-05
CGA:   7    -0.171327249919E+03   -0.77243E-04   -0.77487E-04  1200   0.690E-04-0.388E-05
CGA:   8    -0.171327274123E+03   -0.24204E-04   -0.24276E-04  1200   0.180E-04-0.123E-05
CGA:   9    -0.171327280164E+03   -0.60405E-05   -0.60270E-05  1200   0.402E-05 0.354E-06
CGA:  10    -0.171327281571E+03   -0.14067E-05   -0.13980E-05  1200   0.109E-05 0.235E-06
   3 F= -.17132728E+03 E0= -.17132728E+03  d E =-.494198E-01
       N       E                     dE             d eps       ncg     rms          ort
SDA:   1    -0.169741792353E+03    0.15855E+01    0.00000E+00  1200   0.466E+01 0.000E+00
CGA:   2    -0.170876101444E+03   -0.11343E+01   -0.11328E+01  1200   0.122E+01-0.537E-02
CGA:   3    -0.171257717954E+03   -0.38162E+00   -0.38161E+00  1200   0.241E+00 0.492E-03
CGA:   4    -0.171318229265E+03   -0.60511E-01   -0.60496E-01  1200   0.425E-01-0.153E-03
CGA:   5    -0.171331204908E+03   -0.12976E-01   -0.12976E-01  1200   0.926E-02-0.239E-04
CGA:   6    -0.171334478092E+03   -0.32732E-02   -0.32728E-02  1200   0.275E-02 0.740E-05
CGA:   7    -0.171335545837E+03   -0.10677E-02   -0.10680E-02  1200   0.942E-03-0.331E-05
CGA:   8    -0.171335874812E+03   -0.32898E-03   -0.32911E-03  1200   0.233E-03-0.356E-05
CGA:   9    -0.171335956886E+03   -0.82074E-04   -0.82147E-04  1200   0.487E-04-0.176E-05
CGA:  10    -0.171335974586E+03   -0.17700E-04   -0.17738E-04  1200   0.112E-04-0.717E-06
CGA:  11    -0.171335978632E+03   -0.40466E-05   -0.40749E-05  1200   0.380E-05-0.544E-06
   4 F= -.17133598E+03 E0= -.17133598E+03  d E =-.869706E-02
       N       E                     dE             d eps       ncg     rms          ort
SDA:   1    -0.171021704363E+03    0.31427E+00    0.00000E+00  1200   0.968E+00 0.000E+00
CGA:   2    -0.171258255594E+03   -0.23655E+00   -0.23673E+00  1200   0.254E+00 0.365E-03
CGA:   3    -0.171338183251E+03   -0.79928E-01   -0.79928E-01  1200   0.500E-01 0.314E-04
CGA:   4    -0.171350602905E+03   -0.12420E-01   -0.12423E-01  1200   0.885E-02 0.361E-04
CGA:   5    -0.171353283650E+03   -0.26807E-02   -0.26809E-02  1200   0.190E-02 0.151E-04
CGA:   6    -0.171353954496E+03   -0.67085E-03   -0.67081E-03  1200   0.560E-03 0.923E-06
CGA:   7    -0.171354168631E+03   -0.21414E-03   -0.21394E-03  1200   0.192E-03 0.292E-05
CGA:   8    -0.171354235538E+03   -0.66907E-04   -0.66849E-04  1200   0.472E-04 0.207E-05
CGA:   9    -0.171354252303E+03   -0.16765E-04   -0.16744E-04  1200   0.100E-04 0.680E-06
CGA:  10    -0.171354255949E+03   -0.36456E-05   -0.36384E-05  1200   0.226E-05 0.196E-06
   5 F= -.17135426E+03 E0= -.17135426E+03  d E =-.269744E-01
       N       E                     dE             d eps       ncg     rms          ort
SDA:   1    -0.171200344368E+03    0.15391E+00    0.00000E+00  1200   0.750E+00 0.000E+00
CGA:   2    -0.171352475909E+03   -0.15213E+00   -0.15200E+00  1200   0.992E-01 0.229E-03
CGA:   3    -0.171386274519E+03   -0.33799E-01   -0.33800E-01  1200   0.266E-01-0.958E-04
CGA:   4    -0.171393236386E+03   -0.69619E-02   -0.69572E-02  1200   0.593E-02-0.776E-04
CGA:   5    -0.171395201504E+03   -0.19651E-02   -0.19659E-02  1200   0.171E-02-0.487E-04
CGA:   6    -0.171395839679E+03   -0.63817E-03   -0.63892E-03  1200   0.501E-03-0.126E-04
CGA:   7    -0.171396024127E+03   -0.18445E-03   -0.18467E-03  1200   0.148E-03-0.428E-05
CGA:   8    -0.171396072711E+03   -0.48584E-04   -0.48593E-04  1200   0.312E-04-0.115E-05
CGA:   9    -0.171396083298E+03   -0.10587E-04   -0.10575E-04  1200   0.629E-05 0.642E-06
CGA:  10    -0.171396085484E+03   -0.21860E-05   -0.21781E-05  1200   0.158E-05 0.502E-06
   6 F= -.17139609E+03 E0= -.17139609E+03  d E =-.418295E-01
       N       E                     dE             d eps       ncg     rms          ort
SDA:   1    -0.169706461481E+03    0.16896E+01    0.00000E+00  1200   0.679E+01 0.000E+00
CGA:   2    -0.171083466067E+03   -0.13770E+01   -0.13734E+01  1200   0.883E+00 0.486E-02
CGA:   3    -0.171385933669E+03   -0.30247E+00   -0.30246E+00  1200   0.237E+00 0.812E-04
CGA:   4    -0.171448271046E+03   -0.62337E-01   -0.62315E-01  1200   0.528E-01-0.298E-03
CGA:   5    -0.171465936170E+03   -0.17665E-01   -0.17667E-01  1200   0.152E-01-0.132E-03
CGA:   6    -0.171471670635E+03   -0.57345E-02   -0.57363E-02  1200   0.443E-02-0.335E-04
CGA:   7    -0.171473315381E+03   -0.16447E-02   -0.16454E-02  1200   0.128E-02-0.124E-04
CGA:   8    -0.171473738523E+03   -0.42314E-03   -0.42317E-03  1200   0.269E-03-0.324E-05
CGA:   9    -0.171473832465E+03   -0.93941E-04   -0.93903E-04  1200   0.546E-04 0.158E-05
CGA:  10    -0.171473852489E+03   -0.20024E-04   -0.19980E-04  1200   0.144E-04 0.118E-05
CGA:  11    -0.171473858077E+03   -0.55875E-05   -0.55903E-05  1200   0.537E-05-0.540E-07
CGA:  12    -0.171473860079E+03   -0.20027E-05   -0.20183E-05  1200   0.192E-05-0.336E-06
   7 F= -.17147386E+03 E0= -.17147386E+03  d E =-.119604E+00
       N       E                     dE             d eps       ncg     rms          ort
SDA:   1    -0.164273539964E+03    0.72003E+01    0.00000E+00  1200   0.275E+02 0.000E+00
CGA:   2    -0.169856817569E+03   -0.55833E+01   -0.55557E+01  1200   0.347E+01 0.543E-01
CGA:   3    -0.171058819450E+03   -0.12020E+01   -0.12019E+01  1200   0.932E+00 0.332E-02
CGA:   4    -0.171306236981E+03   -0.24742E+00   -0.24733E+00  1200   0.208E+00-0.823E-03
CGA:   5    -0.171376815297E+03   -0.70578E-01   -0.70578E-01  1200   0.603E-01-0.157E-03
CGA:   6    -0.171399746390E+03   -0.22931E-01   -0.22933E-01  1200   0.172E-01-0.457E-04
CGA:   7    -0.171406188959E+03   -0.64426E-02   -0.64435E-02  1200   0.476E-02-0.228E-04
CGA:   8    -0.171407777307E+03   -0.15883E-02   -0.15884E-02  1200   0.995E-03-0.491E-05
CGA:   9    -0.171408129320E+03   -0.35201E-03   -0.35197E-03  1200   0.192E-03 0.208E-05
CGA:  10    -0.171408203997E+03   -0.74677E-04   -0.74597E-04  1200   0.467E-04 0.152E-05
CGA:  11    -0.171408224549E+03   -0.20552E-04   -0.20615E-04  1200   0.144E-04-0.631E-06
CGA:  12    -0.171408230672E+03   -0.61229E-05   -0.61835E-05  1200   0.478E-05-0.646E-06
CGA:  13    -0.171408232423E+03   -0.17514E-05   -0.17590E-05  1200   0.155E-05-0.194E-06
   8 F= -.17140823E+03 E0= -.17140823E+03  d E =-.539765E-01
       N       E                     dE             d eps       ncg     rms          ort
SDA:   1    -0.167729473534E+03    0.36788E+01    0.00000E+00  1200   0.144E+02 0.000E+00
CGA:   2    -0.170653521881E+03   -0.29240E+01   -0.29402E+01  1200   0.191E+01-0.202E-01
CGA:   3    -0.171303913773E+03   -0.65039E+00   -0.65039E+00  1200   0.492E+00 0.399E-03
CGA:   4    -0.171434593487E+03   -0.13068E+00   -0.13075E+00  1200   0.110E+00 0.573E-03
CGA:   5    -0.171469955214E+03   -0.35362E-01   -0.35364E-01  1200   0.305E-01 0.205E-03
CGA:   6    -0.171481796044E+03   -0.11841E-01   -0.11837E-01  1200   0.885E-02 0.714E-04
CGA:   7    -0.171485139904E+03   -0.33439E-02   -0.33431E-02  1200   0.265E-02 0.211E-04
CGA:   8    -0.171486017283E+03   -0.87738E-03   -0.87743E-03  1200   0.568E-03 0.426E-05
CGA:   9    -0.171486218447E+03   -0.20116E-03   -0.20121E-03  1200   0.119E-03-0.399E-05
CGA:  10    -0.171486262757E+03   -0.44310E-04   -0.44416E-04  1200   0.336E-04-0.337E-05
CGA:  11    -0.171486274441E+03   -0.11684E-04   -0.11692E-04  1200   0.117E-04-0.566E-06
CGA:  12    -0.171486278293E+03   -0.38521E-05   -0.38549E-05  1200   0.322E-05 0.270E-06
   9 F= -.17148628E+03 E0= -.17148628E+03  d E =-.132022E+00
       N       E                     dE             d eps       ncg     rms          ort
SDA:   1    -0.171424980694E+03    0.61294E-01    0.00000E+00  1200   0.344E+00 0.000E+00
CGA:   2    -0.171493892303E+03   -0.68912E-01   -0.68867E-01  1200   0.438E-01 0.145E-03
CGA:   3    -0.171508811021E+03   -0.14919E-01   -0.14919E-01  1200   0.119E-01-0.635E-04
CGA:   4    -0.171511942001E+03   -0.31310E-02   -0.31269E-02  1200   0.264E-02-0.517E-04
CGA:   5    -0.171512834329E+03   -0.89233E-03   -0.89242E-03  1200   0.764E-03-0.355E-04
CGA:   6    -0.171513121653E+03   -0.28732E-03   -0.28772E-03  1200   0.222E-03-0.889E-05
CGA:   7    -0.171513202200E+03   -0.80547E-04   -0.80600E-04  1200   0.641E-04-0.181E-05
CGA:   8    -0.171513223354E+03   -0.21154E-04   -0.21153E-04  1200   0.132E-04-0.177E-06
CGA:   9    -0.171513227794E+03   -0.44399E-05   -0.44413E-05  1200   0.256E-05 0.540E-06
  10 F= -.17151323E+03 E0= -.17151323E+03  d E =-.269495E-01
       N       E                     dE             d eps       ncg     rms          ort
SDA:   1    -0.170763473389E+03    0.74975E+00    0.00000E+00  1200   0.310E+01 0.000E+00
CGA:   2    -0.171385668017E+03   -0.62219E+00   -0.62097E+00  1200   0.390E+00 0.233E-02
CGA:   3    -0.171519125620E+03   -0.13346E+00   -0.13346E+00  1200   0.106E+00-0.644E-04
CGA:   4    -0.171547051895E+03   -0.27926E-01   -0.27912E-01  1200   0.235E-01-0.179E-03
CGA:   5    -0.171555019543E+03   -0.79676E-02   -0.79687E-02  1200   0.675E-02-0.103E-03
CGA:   6    -0.171557589359E+03   -0.25698E-02   -0.25712E-02  1200   0.196E-02-0.257E-04
CGA:   7    -0.171558306703E+03   -0.71734E-03   -0.71755E-03  1200   0.561E-03-0.559E-05
CGA:   8    -0.171558493444E+03   -0.18674E-03   -0.18674E-03  1200   0.115E-03-0.736E-06
CGA:   9    -0.171558533753E+03   -0.40309E-04   -0.40286E-04  1200   0.228E-04 0.140E-05
CGA:  10    -0.171558542068E+03   -0.83148E-05   -0.82938E-05  1200   0.566E-05 0.886E-06
CGA:  11    -0.171558544360E+03   -0.22918E-05   -0.22863E-05  1200   0.211E-05 0.103E-06
  11 F= -.17155854E+03 E0= -.17155854E+03  d E =-.722661E-01
       N       E                     dE             d eps       ncg     rms          ort
SDA:   1    -0.171468509127E+03    0.90033E-01    0.00000E+00  1200   0.363E+00 0.000E+00
CGA:   2    -0.171541396252E+03   -0.72887E-01   -0.72842E-01  1200   0.458E-01 0.135E-03
CGA:   3    -0.171557077258E+03   -0.15681E-01   -0.15681E-01  1200   0.123E-01-0.655E-04
CGA:   4    -0.171560349959E+03   -0.32727E-02   -0.32688E-02  1200   0.275E-02-0.548E-04
CGA:   5    -0.171561280473E+03   -0.93051E-03   -0.93085E-03  1200   0.794E-03-0.374E-04
CGA:   6    -0.171561581851E+03   -0.30138E-03   -0.30188E-03  1200   0.229E-03-0.928E-05
CGA:   7    -0.171561665557E+03   -0.83706E-04   -0.83772E-04  1200   0.655E-04-0.181E-05
CGA:   8    -0.171561687239E+03   -0.21682E-04   -0.21682E-04  1200   0.134E-04-0.176E-06
CGA:   9    -0.171561691795E+03   -0.45557E-05   -0.45527E-05  1200   0.253E-05 0.530E-06
  12 F= -.17156169E+03 E0= -.17156169E+03  d E =-.754135E-01
       N       E                     dE             d eps       ncg     rms          ort
SDA:   1    -0.171514824676E+03    0.46863E-01    0.00000E+00  1200   0.193E+00 0.000E+00
CGA:   2    -0.171559406430E+03   -0.44582E-01   -0.44568E-01  1200   0.395E-01 0.261E-04
CGA:   3    -0.171572481991E+03   -0.13076E-01   -0.13076E-01  1200   0.824E-02-0.367E-04
CGA:   4    -0.171574624944E+03   -0.21430E-02   -0.21410E-02  1200   0.164E-02-0.269E-04
CGA:   5    -0.171575142261E+03   -0.51732E-03   -0.51714E-03  1200   0.388E-03-0.153E-04
CGA:   6    -0.171575286770E+03   -0.14451E-03   -0.14464E-03  1200   0.118E-03-0.274E-05
CGA:   7    -0.171575333544E+03   -0.46775E-04   -0.46900E-04  1200   0.366E-04-0.181E-05
CGA:   8    -0.171575346093E+03   -0.12548E-04   -0.12562E-04  1200   0.855E-05-0.855E-06
CGA:   9    -0.171575348932E+03   -0.28396E-05   -0.28404E-05  1200   0.165E-05-0.117E-06
  13 F= -.17157535E+03 E0= -.17157535E+03  d E =-.136571E-01
       N       E                     dE             d eps       ncg     rms          ort
SDA:   1    -0.171479628578E+03    0.95718E-01    0.00000E+00  1200   0.326E+00 0.000E+00
CGA:   2    -0.171554892067E+03   -0.75263E-01   -0.75232E-01  1200   0.665E-01 0.273E-04
CGA:   3    -0.171576918657E+03   -0.22027E-01   -0.22027E-01  1200   0.139E-01-0.456E-04
CGA:   4    -0.171580525125E+03   -0.36065E-02   -0.36038E-02  1200   0.276E-02-0.356E-04
CGA:   5    -0.171581394177E+03   -0.86905E-03   -0.86885E-03  1200   0.650E-03-0.199E-04
CGA:   6    -0.171581637129E+03   -0.24295E-03   -0.24313E-03  1200   0.198E-03-0.351E-05
CGA:   7    -0.171581715571E+03   -0.78442E-04   -0.78604E-04  1200   0.610E-04-0.232E-05
CGA:   8    -0.171581736504E+03   -0.20934E-04   -0.20951E-04  1200   0.142E-04-0.111E-05
CGA:   9    -0.171581741255E+03   -0.47502E-05   -0.47514E-05  1200   0.275E-05-0.156E-06
  14 F= -.17158174E+03 E0= -.17158174E+03  d E =-.200495E-01
       N       E                     dE             d eps       ncg     rms          ort
SDA:   1    -0.171574816149E+03    0.69204E-02    0.00000E+00  1200   0.430E-01 0.000E+00
CGA:   2    -0.171584752853E+03   -0.99367E-02   -0.99375E-02  1200   0.781E-02 0.163E-04
CGA:   3    -0.171587350366E+03   -0.25975E-02   -0.25976E-02  1200   0.165E-02-0.108E-04
CGA:   4    -0.171587779025E+03   -0.42866E-03   -0.42817E-03  1200   0.327E-03-0.687E-05
CGA:   5    -0.171587879292E+03   -0.10027E-03   -0.10021E-03  1200   0.770E-04-0.325E-05
CGA:   6    -0.171587907520E+03   -0.28228E-04   -0.28244E-04  1200   0.221E-04-0.347E-06
CGA:   7    -0.171587916548E+03   -0.90278E-05   -0.90693E-05  1200   0.699E-05-0.487E-06
CGA:   8    -0.171587919092E+03   -0.25442E-05   -0.25573E-05  1200   0.181E-05-0.305E-06
  15 F= -.17158792E+03 E0= -.17158792E+03  d E =-.617784E-02
       N       E                     dE             d eps       ncg     rms          ort
SDA:   1    -0.171479924832E+03    0.10799E+00    0.00000E+00  1200   0.387E+00 0.000E+00
CGA:   2    -0.171569484838E+03   -0.89560E-01   -0.89539E-01  1200   0.702E-01 0.404E-04
CGA:   3    -0.171592805714E+03   -0.23321E-01   -0.23321E-01  1200   0.148E-01-0.332E-04
CGA:   4    -0.171596648632E+03   -0.38429E-02   -0.38412E-02  1200   0.292E-02-0.214E-04
CGA:   5    -0.171597543700E+03   -0.89507E-03   -0.89490E-03  1200   0.684E-03-0.934E-05
CGA:   6    -0.171597796784E+03   -0.25308E-03   -0.25312E-03  1200   0.197E-03-0.866E-06
CGA:   7    -0.171597876837E+03   -0.80053E-04   -0.80161E-04  1200   0.611E-04-0.136E-05
CGA:   8    -0.171597899095E+03   -0.22258E-04   -0.22290E-04  1200   0.154E-04-0.873E-06
CGA:   9    -0.171597904411E+03   -0.53164E-05   -0.53189E-05  1200   0.335E-05-0.139E-06
CGA:  10    -0.171597905639E+03   -0.12280E-05   -0.12262E-05  1200   0.782E-06 0.503E-07
  16 F= -.17159791E+03 E0= -.17159791E+03  d E =-.161644E-01
       N       E                     dE             d eps       ncg     rms          ort
SDA:   1    -0.171592248403E+03    0.56560E-02    0.00000E+00  1200   0.382E-01 0.000E+00
CGA:   2    -0.171601276361E+03   -0.90280E-02   -0.90291E-02  1200   0.685E-02 0.149E-04
CGA:   3    -0.171603498957E+03   -0.22226E-02   -0.22225E-02  1200   0.151E-02-0.670E-05
CGA:   4    -0.171603890099E+03   -0.39114E-03   -0.39085E-03  1200   0.293E-03-0.377E-05
CGA:   5    -0.171603983149E+03   -0.93050E-04   -0.93029E-04  1200   0.701E-04-0.157E-05
CGA:   6    -0.171604008834E+03   -0.25684E-04   -0.25683E-04  1200   0.203E-04 0.464E-07
CGA:   7    -0.171604017035E+03   -0.82010E-05   -0.82198E-05  1200   0.601E-05-0.261E-06
CGA:   8    -0.171604019334E+03   -0.22993E-05   -0.23109E-05  1200   0.154E-05-0.217E-06
  17 F= -.17160402E+03 E0= -.17160402E+03  d E =-.611370E-02
       N       E                     dE             d eps       ncg     rms          ort
SDA:   1    -0.171505966110E+03    0.98051E-01    0.00000E+00  1200   0.344E+00 0.000E+00
CGA:   2    -0.171587276136E+03   -0.81310E-01   -0.81302E-01  1200   0.615E-01 0.300E-04
CGA:   3    -0.171607223847E+03   -0.19948E-01   -0.19947E-01  1200   0.135E-01-0.233E-04
CGA:   4    -0.171610722264E+03   -0.34984E-02   -0.34974E-02  1200   0.261E-02-0.117E-04
CGA:   5    -0.171611551946E+03   -0.82968E-03   -0.82963E-03  1200   0.626E-03-0.436E-05
CGA:   6    -0.171611783086E+03   -0.23114E-03   -0.23113E-03  1200   0.183E-03 0.293E-06
CGA:   7    -0.171611856364E+03   -0.73278E-04   -0.73328E-04  1200   0.533E-04-0.735E-06
CGA:   8    -0.171611876646E+03   -0.20282E-04   -0.20312E-04  1200   0.133E-04-0.639E-06
CGA:   9    -0.171611881291E+03   -0.46448E-05   -0.46476E-05  1200   0.313E-05-0.188E-06
  18 F= -.17161188E+03 E0= -.17161188E+03  d E =-.139757E-01
       N       E                     dE             d eps       ncg     rms          ort
SDA:   1    -0.171601181573E+03    0.10695E-01    0.00000E+00  1200   0.473E-01 0.000E+00
CGA:   2    -0.171612126267E+03   -0.10945E-01   -0.10946E-01  1200   0.698E-02 0.126E-04
CGA:   3    -0.171614347081E+03   -0.22208E-02   -0.22207E-02  1200   0.156E-02-0.614E-05
CGA:   4    -0.171614760773E+03   -0.41369E-03   -0.41347E-03  1200   0.333E-03-0.318E-05
CGA:   5    -0.171614866723E+03   -0.10595E-03   -0.10593E-03  1200   0.845E-04-0.166E-05
CGA:   6    -0.171614898418E+03   -0.31695E-04   -0.31704E-04  1200   0.252E-04-0.191E-06
CGA:   7    -0.171614908329E+03   -0.99107E-05   -0.99283E-05  1200   0.693E-05-0.283E-06
CGA:   8    -0.171614910912E+03   -0.25827E-05   -0.25876E-05  1200   0.162E-05-0.117E-06
  19 F= -.17161491E+03 E0= -.17161491E+03  d E =-.302962E-02
       N       E                     dE             d eps       ncg     rms          ort
SDA:   1    -0.171496781264E+03    0.11813E+00    0.00000E+00  1200   0.421E+00 0.000E+00
CGA:   2    -0.171594134077E+03   -0.97353E-01   -0.97353E-01  1200   0.619E-01 0.188E-04
CGA:   3    -0.171613824406E+03   -0.19690E-01   -0.19690E-01  1200   0.137E-01-0.237E-04
CGA:   4    -0.171617477979E+03   -0.36536E-02   -0.36529E-02  1200   0.294E-02-0.943E-05
CGA:   5    -0.171618413224E+03   -0.93524E-03   -0.93520E-03  1200   0.749E-03-0.441E-05
CGA:   6    -0.171618694552E+03   -0.28133E-03   -0.28135E-03  1200   0.224E-03-0.379E-06
CGA:   7    -0.171618781885E+03   -0.87333E-04   -0.87381E-04  1200   0.607E-04-0.785E-06
CGA:   8    -0.171618804591E+03   -0.22706E-04   -0.22722E-04  1200   0.141E-04-0.370E-06
CGA:   9    -0.171618809589E+03   -0.49977E-05   -0.49993E-05  1200   0.342E-05-0.770E-07
  20 F= -.17161881E+03 E0= -.17161881E+03  d E =-.692830E-02
       N       E                     dE             d eps       ncg     rms          ort
SDA:   1    -0.171600251704E+03    0.18553E-01    0.00000E+00  1200   0.694E-01 0.000E+00
CGA:   2    -0.171617438955E+03   -0.17187E-01   -0.17187E-01  1200   0.127E-01 0.425E-05
CGA:   3    -0.171621350403E+03   -0.39114E-02   -0.39113E-02  1200   0.287E-02-0.647E-05
CGA:   4    -0.171622111461E+03   -0.76106E-03   -0.76072E-03  1200   0.574E-03-0.496E-05
CGA:   5    -0.171622299547E+03   -0.18809E-03   -0.18808E-03  1200   0.133E-03-0.329E-05
CGA:   6    -0.171622350021E+03   -0.50474E-04   -0.50532E-04  1200   0.412E-04-0.107E-05
CGA:   7    -0.171622365645E+03   -0.15624E-04   -0.15645E-04  1200   0.121E-04-0.405E-06
CGA:   8    -0.171622369928E+03   -0.42829E-05   -0.42833E-05  1200   0.296E-05-0.197E-07
  21 F= -.17162237E+03 E0= -.17162237E+03  d E =-.356034E-02
       N       E                     dE             d eps       ncg     rms          ort
SDA:   1    -0.171600170618E+03    0.22195E-01    0.00000E+00  1200   0.735E-01 0.000E+00
CGA:   2    -0.171618400170E+03   -0.18230E-01   -0.18230E-01  1200   0.134E-01 0.420E-05
CGA:   3    -0.171622537214E+03   -0.41370E-02   -0.41369E-02  1200   0.302E-02-0.669E-05
CGA:   4    -0.171623336281E+03   -0.79907E-03   -0.79873E-03  1200   0.607E-03-0.511E-05
CGA:   5    -0.171623534650E+03   -0.19837E-03   -0.19837E-03  1200   0.141E-03-0.338E-05
CGA:   6    -0.171623588333E+03   -0.53683E-04   -0.53744E-04  1200   0.440E-04-0.110E-05
CGA:   7    -0.171623604953E+03   -0.16620E-04   -0.16642E-04  1200   0.130E-04-0.409E-06
CGA:   8    -0.171623609522E+03   -0.45685E-05   -0.45689E-05  1200   0.318E-05-0.179E-07
  22 F= -.17162361E+03 E0= -.17162361E+03  d E =-.479993E-02
       N       E                     dE             d eps       ncg     rms          ort
SDA:   1    -0.171601473604E+03    0.22131E-01    0.00000E+00  1200   0.780E-01 0.000E+00
CGA:   2    -0.171621299768E+03   -0.19826E-01   -0.19826E-01  1200   0.153E-01 0.138E-05
CGA:   3    -0.171625810377E+03   -0.45106E-02   -0.45104E-02  1200   0.349E-02-0.647E-05
CGA:   4    -0.171626732238E+03   -0.92186E-03   -0.92161E-03  1200   0.644E-03-0.412E-05
CGA:   5    -0.171626947887E+03   -0.21565E-03   -0.21569E-03  1200   0.143E-03-0.367E-05
CGA:   6    -0.171627002920E+03   -0.55033E-04   -0.55134E-04  1200   0.445E-04-0.160E-05
CGA:   7    -0.171627019779E+03   -0.16859E-04   -0.16903E-04  1200   0.133E-04-0.778E-06
CGA:   8    -0.171627024526E+03   -0.47463E-05   -0.47465E-05  1200   0.311E-05-0.760E-08
  23 F= -.17162702E+03 E0= -.17162702E+03  d E =-.341500E-02
       N       E                     dE             d eps       ncg     rms          ort
SDA:   1    -0.171602728759E+03    0.24291E-01    0.00000E+00  1200   0.777E-01 0.000E+00
CGA:   2    -0.171622463808E+03   -0.19735E-01   -0.19735E-01  1200   0.152E-01 0.130E-05
CGA:   3    -0.171626951295E+03   -0.44875E-02   -0.44873E-02  1200   0.347E-02-0.645E-05
CGA:   4    -0.171627868435E+03   -0.91714E-03   -0.91689E-03  1200   0.640E-03-0.410E-05
CGA:   5    -0.171628082832E+03   -0.21440E-03   -0.21444E-03  1200   0.143E-03-0.367E-05
CGA:   6    -0.171628137682E+03   -0.54850E-04   -0.54951E-04  1200   0.446E-04-0.161E-05
CGA:   7    -0.171628154519E+03   -0.16837E-04   -0.16880E-04  1200   0.133E-04-0.782E-06
CGA:   8    -0.171628159263E+03   -0.47440E-05   -0.47443E-05  1200   0.312E-05-0.108E-07
  24 F= -.17162816E+03 E0= -.17162816E+03  d E =-.454974E-02
       N       E                     dE             d eps       ncg     rms          ort
SDA:   1    -0.171606882773E+03    0.21272E-01    0.00000E+00  1200   0.775E-01 0.000E+00
CGA:   2    -0.171626225173E+03   -0.19342E-01   -0.19343E-01  1200   0.139E-01-0.408E-06
CGA:   3    -0.171630267029E+03   -0.40419E-02   -0.40418E-02  1200   0.315E-02-0.342E-05
CGA:   4    -0.171631106293E+03   -0.83926E-03   -0.83912E-03  1200   0.621E-03-0.253E-05
CGA:   5    -0.171631321551E+03   -0.21526E-03   -0.21531E-03  1200   0.147E-03-0.216E-05
CGA:   6    -0.171631380268E+03   -0.58717E-04   -0.58845E-04  1200   0.464E-04-0.169E-05
CGA:   7    -0.171631397558E+03   -0.17290E-04   -0.17334E-04  1200   0.135E-04-0.924E-06
CGA:   8    -0.171631402120E+03   -0.45622E-05   -0.45618E-05  1200   0.328E-05 0.336E-07
  25 F= -.17163140E+03 E0= -.17163140E+03  d E =-.324286E-02
       N       E                     dE             d eps       ncg     rms          ort
SDA:   1    -0.171586085222E+03    0.45312E-01    0.00000E+00  1200   0.148E+00 0.000E+00
CGA:   2    -0.171623135701E+03   -0.37050E-01   -0.37051E-01  1200   0.266E-01-0.311E-05
CGA:   3    -0.171630873865E+03   -0.77382E-02   -0.77382E-02  1200   0.604E-02-0.319E-05
CGA:   4    -0.171632483042E+03   -0.16092E-02   -0.16090E-02  1200   0.119E-02-0.335E-05
CGA:   5    -0.171632895748E+03   -0.41271E-03   -0.41277E-03  1200   0.282E-03-0.292E-05
CGA:   6    -0.171633007969E+03   -0.11222E-03   -0.11240E-03  1200   0.884E-04-0.230E-05
CGA:   7    -0.171633040938E+03   -0.32969E-04   -0.33030E-04  1200   0.256E-04-0.127E-05
CGA:   8    -0.171633049686E+03   -0.87476E-05   -0.87470E-05  1200   0.628E-05 0.398E-07
CGA:   9    -0.171633051755E+03   -0.20690E-05   -0.20690E-05  1200   0.174E-05 0.240E-07
  26 F= -.17163305E+03 E0= -.17163305E+03  d E =-.489249E-02
       N       E                     dE             d eps       ncg     rms          ort
SDA:   1    -0.171605885179E+03    0.27165E-01    0.00000E+00  1200   0.886E-01 0.000E+00
CGA:   2    -0.171629095013E+03   -0.23210E-01   -0.23210E-01  1200   0.182E-01-0.105E-05
CGA:   3    -0.171634375581E+03   -0.52806E-02   -0.52808E-02  1200   0.404E-02 0.403E-05
CGA:   4    -0.171635446005E+03   -0.10704E-02   -0.10706E-02  1200   0.728E-03 0.246E-05
CGA:   5    -0.171635690715E+03   -0.24471E-03   -0.24471E-03  1200   0.160E-03-0.255E-06
CGA:   6    -0.171635752944E+03   -0.62229E-04   -0.62257E-04  1200   0.517E-04-0.424E-06
CGA:   7    -0.171635772621E+03   -0.19677E-04   -0.19696E-04  1200   0.157E-04-0.349E-06
CGA:   8    -0.171635778031E+03   -0.54106E-05   -0.54080E-05  1200   0.407E-05 0.156E-06
CGA:   9    -0.171635779374E+03   -0.13432E-05   -0.13431E-05  1200   0.110E-05-0.277E-07
  27 F= -.17163578E+03 E0= -.17163578E+03  d E =-.272762E-02
       N       E                     dE             d eps       ncg     rms          ort
SDA:   1    -0.171590612065E+03    0.45166E-01    0.00000E+00  1200   0.137E+00 0.000E+00
CGA:   2    -0.171626620827E+03   -0.36009E-01   -0.36009E-01  1200   0.283E-01-0.294E-05
CGA:   3    -0.171634810145E+03   -0.81893E-02   -0.81898E-02  1200   0.627E-02 0.641E-05
CGA:   4    -0.171636470395E+03   -0.16602E-02   -0.16605E-02  1200   0.113E-02 0.314E-05
CGA:   5    -0.171636850327E+03   -0.37993E-03   -0.37994E-03  1200   0.249E-03-0.261E-06
CGA:   6    -0.171636946777E+03   -0.96449E-04   -0.96481E-04  1200   0.801E-04-0.491E-06
CGA:   7    -0.171636977248E+03   -0.30471E-04   -0.30494E-04  1200   0.243E-04-0.426E-06
CGA:   8    -0.171636985655E+03   -0.84073E-05   -0.84039E-05  1200   0.634E-05 0.195E-06
CGA:   9    -0.171636987735E+03   -0.20792E-05   -0.20790E-05  1200   0.171E-05-0.357E-07
  28 F= -.17163699E+03 E0= -.17163699E+03  d E =-.393598E-02
       N       E                     dE             d eps       ncg     rms          ort
SDA:   1    -0.171627489645E+03    0.94960E-02    0.00000E+00  1200   0.375E-01 0.000E+00
CGA:   2    -0.171636712387E+03   -0.92227E-02   -0.92228E-02  1200   0.654E-02-0.306E-05
CGA:   3    -0.171638572615E+03   -0.18602E-02   -0.18604E-02  1200   0.148E-02 0.296E-05
CGA:   4    -0.171638971924E+03   -0.39931E-03   -0.39939E-03  1200   0.284E-03 0.145E-05
CGA:   5    -0.171639071966E+03   -0.10004E-03   -0.10005E-03  1200   0.701E-04-0.347E-06
CGA:   6    -0.171639099173E+03   -0.27207E-04   -0.27232E-04  1200   0.227E-04-0.388E-06
CGA:   7    -0.171639107542E+03   -0.83696E-05   -0.83767E-05  1200   0.616E-05-0.161E-06
CGA:   8    -0.171639109651E+03   -0.21093E-05   -0.21072E-05  1200   0.154E-05 0.142E-06
  29 F= -.17163911E+03 E0= -.17163911E+03  d E =-.212192E-02
       N       E                     dE             d eps       ncg     rms          ort
SDA:   1    -0.171538627053E+03    0.10048E+00    0.00000E+00  1200   0.336E+00 0.000E+00
CGA:   2    -0.171621583952E+03   -0.82957E-01   -0.82963E-01  1200   0.587E-01-0.239E-04
CGA:   3    -0.171638290272E+03   -0.16706E-01   -0.16708E-01  1200   0.133E-01 0.223E-04
CGA:   4    -0.171641876284E+03   -0.35860E-02   -0.35864E-02  1200   0.257E-02 0.557E-05
CGA:   5    -0.171642777957E+03   -0.90167E-03   -0.90168E-03  1200   0.631E-03-0.333E-06
CGA:   6    -0.171643022305E+03   -0.24435E-03   -0.24441E-03  1200   0.202E-03-0.949E-06
CGA:   7    -0.171643097102E+03   -0.74798E-04   -0.74819E-04  1200   0.545E-04-0.460E-06
CGA:   8    -0.171643116265E+03   -0.19163E-04   -0.19153E-04  1200   0.141E-04 0.409E-06
CGA:   9    -0.171643120816E+03   -0.45504E-05   -0.45499E-05  1200   0.405E-05-0.551E-07
  30 F= -.17164312E+03 E0= -.17164312E+03  d E =-.613308E-02
       N       E                     dE             d eps       ncg     rms          ort
SDA:   1    -0.171223288324E+03    0.41983E+00    0.00000E+00  1200   0.134E+01 0.000E+00
CGA:   2    -0.171554257992E+03   -0.33097E+00   -0.33102E+00  1200   0.236E+00-0.161E-03
CGA:   3    -0.171621110121E+03   -0.66852E-01   -0.66865E-01  1200   0.538E-01 0.141E-03
CGA:   4    -0.171635563434E+03   -0.14453E-01   -0.14455E-01  1200   0.103E-01 0.196E-04
CGA:   5    -0.171639182463E+03   -0.36190E-02   -0.36190E-02  1200   0.254E-02 0.204E-05
CGA:   6    -0.171640161632E+03   -0.97917E-03   -0.97924E-03  1200   0.809E-03-0.112E-05
CGA:   7    -0.171640462554E+03   -0.30092E-03   -0.30096E-03  1200   0.217E-03-0.885E-06
CGA:   8    -0.171640539948E+03   -0.77394E-04   -0.77372E-04  1200   0.564E-04 0.750E-06
CGA:   9    -0.171640558017E+03   -0.18069E-04   -0.18066E-04  1200   0.163E-04-0.216E-06
CGA:  10    -0.171640563553E+03   -0.55356E-05   -0.55407E-05  1200   0.430E-05-0.416E-06
CGA:  11    -0.171640565114E+03   -0.15618E-05   -0.15621E-05  1200   0.117E-05-0.632E-08
  31 F= -.17164057E+03 E0= -.17164057E+03  d E =-.357738E-02
       N       E                     dE             d eps       ncg     rms          ort
SDA:   1    -0.171450976783E+03    0.18959E+00    0.00000E+00  1200   0.623E+00 0.000E+00
CGA:   2    -0.171604107830E+03   -0.15313E+00   -0.15312E+00  1200   0.108E+00 0.891E-04
CGA:   3    -0.171634981661E+03   -0.30874E-01   -0.30871E-01  1200   0.245E-01-0.389E-04
CGA:   4    -0.171641554741E+03   -0.65731E-02   -0.65724E-02  1200   0.472E-02-0.700E-05
CGA:   5    -0.171643210262E+03   -0.16555E-02   -0.16554E-02  1200   0.116E-02 0.317E-05
CGA:   6    -0.171643658047E+03   -0.44779E-03   -0.44765E-03  1200   0.368E-03 0.222E-05
CGA:   7    -0.171643794752E+03   -0.13670E-03   -0.13668E-03  1200   0.998E-04 0.655E-06
CGA:   8    -0.171643830313E+03   -0.35561E-04   -0.35577E-04  1200   0.269E-04-0.625E-06
CGA:   9    -0.171643838685E+03   -0.83715E-05   -0.83699E-05  1200   0.742E-05-0.885E-07
CGA:  10    -0.171643841167E+03   -0.24821E-05   -0.24818E-05  1200   0.180E-05 0.676E-07
  32 F= -.17164384E+03 E0= -.17164384E+03  d E =-.685343E-02
       N       E                     dE             d eps       ncg     rms          ort
SDA:   1    -0.171614728776E+03    0.29110E-01    0.00000E+00  1200   0.968E-01 0.000E+00
CGA:   2    -0.171639594967E+03   -0.24866E-01   -0.24867E-01  1200   0.188E-01-0.718E-05
CGA:   3    -0.171644943786E+03   -0.53488E-02   -0.53492E-02  1200   0.423E-02 0.620E-05
CGA:   4    -0.171646068740E+03   -0.11250E-02   -0.11252E-02  1200   0.756E-03 0.301E-05
CGA:   5    -0.171646329870E+03   -0.26113E-03   -0.26111E-03  1200   0.172E-03 0.109E-05
CGA:   6    -0.171646396227E+03   -0.66357E-04   -0.66378E-04  1200   0.552E-04-0.345E-06
CGA:   7    -0.171646417034E+03   -0.20807E-04   -0.20812E-04  1200   0.156E-04-0.100E-06
CGA:   8    -0.171646422643E+03   -0.56092E-05   -0.56038E-05  1200   0.398E-05 0.193E-06
CGA:   9    -0.171646423946E+03   -0.13022E-05   -0.13022E-05  1200   0.116E-05-0.497E-08
  33 F= -.17164642E+03 E0= -.17164642E+03  d E =-.258278E-02
       N       E                     dE             d eps       ncg     rms          ort
SDA:   1    -0.171581399053E+03    0.65024E-01    0.00000E+00  1200   0.203E+00 0.000E+00
CGA:   2    -0.171633501905E+03   -0.52103E-01   -0.52105E-01  1200   0.394E-01-0.117E-04
CGA:   3    -0.171644711741E+03   -0.11210E-01   -0.11211E-01  1200   0.888E-02 0.117E-04
CGA:   4    -0.171647071497E+03   -0.23598E-02   -0.23601E-02  1200   0.159E-02 0.468E-05
CGA:   5    -0.171647619685E+03   -0.54819E-03   -0.54815E-03  1200   0.360E-03 0.173E-05
CGA:   6    -0.171647759163E+03   -0.13948E-03   -0.13950E-03  1200   0.116E-03-0.425E-06
CGA:   7    -0.171647803172E+03   -0.44009E-04   -0.44016E-04  1200   0.331E-04-0.140E-06
CGA:   8    -0.171647815091E+03   -0.11919E-04   -0.11910E-04  1200   0.857E-05 0.279E-06
CGA:   9    -0.171647817857E+03   -0.27665E-05   -0.27663E-05  1200   0.248E-05-0.148E-07
  34 F= -.17164782E+03 E0= -.17164782E+03  d E =-.397669E-02
       N       E                     dE             d eps       ncg     rms          ort
SDA:   1    -0.171629209823E+03    0.18605E-01    0.00000E+00  1200   0.656E-01 0.000E+00
CGA:   2    -0.171645739374E+03   -0.16530E-01   -0.16530E-01  1200   0.121E-01-0.534E-05
CGA:   3    -0.171649143835E+03   -0.34045E-02   -0.34048E-02  1200   0.279E-02 0.690E-05
CGA:   4    -0.171649888585E+03   -0.74475E-03   -0.74500E-03  1200   0.502E-03 0.416E-05
CGA:   5    -0.171650065164E+03   -0.17658E-03   -0.17651E-03  1200   0.118E-03 0.236E-05
CGA:   6    -0.171650111142E+03   -0.45978E-04   -0.45964E-04  1200   0.389E-04 0.218E-06
CGA:   7    -0.171650125674E+03   -0.14532E-04   -0.14526E-04  1200   0.104E-04 0.124E-06
CGA:   8    -0.171650129535E+03   -0.38613E-05   -0.38548E-05  1200   0.242E-05 0.168E-06
  35 F= -.17165013E+03 E0= -.17165013E+03  d E =-.231168E-02
       N       E                     dE             d eps       ncg     rms          ort
SDA:   1    -0.171499045432E+03    0.15108E+00    0.00000E+00  1200   0.481E+00 0.000E+00
CGA:   2    -0.171620643825E+03   -0.12160E+00   -0.12161E+00  1200   0.888E-01-0.239E-04
CGA:   3    -0.171645638817E+03   -0.24995E-01   -0.24997E-01  1200   0.205E-01 0.339E-04
CGA:   4    -0.171651102408E+03   -0.54636E-02   -0.54645E-02  1200   0.371E-02 0.130E-04
CGA:   5    -0.171652404903E+03   -0.13025E-02   -0.13023E-02  1200   0.873E-03 0.726E-05
CGA:   6    -0.171652743956E+03   -0.33905E-03   -0.33900E-03  1200   0.286E-03 0.890E-06
CGA:   7    -0.171652851060E+03   -0.10710E-03   -0.10709E-03  1200   0.769E-04 0.362E-06
CGA:   8    -0.171652879643E+03   -0.28583E-04   -0.28566E-04  1200   0.183E-04 0.425E-06
CGA:   9    -0.171652885819E+03   -0.61756E-05   -0.61761E-05  1200   0.557E-05-0.121E-06
CGA:  10    -0.171652887580E+03   -0.17612E-05   -0.17590E-05  1200   0.152E-05-0.157E-06
  36 F= -.17165289E+03 E0= -.17165289E+03  d E =-.506972E-02
       N       E                     dE             d eps       ncg     rms          ort
SDA:   1    -0.171638599584E+03    0.14286E-01    0.00000E+00  1200   0.501E-01 0.000E+00
CGA:   2    -0.171651362673E+03   -0.12763E-01   -0.12763E-01  1200   0.959E-02-0.204E-05
CGA:   3    -0.171654037439E+03   -0.26748E-02   -0.26753E-02  1200   0.218E-02 0.111E-04
CGA:   4    -0.171654626668E+03   -0.58923E-03   -0.58963E-03  1200   0.390E-03 0.709E-05
CGA:   5    -0.171654762851E+03   -0.13618E-03   -0.13609E-03  1200   0.922E-04 0.402E-05
CGA:   6    -0.171654798575E+03   -0.35724E-04   -0.35652E-04  1200   0.297E-04 0.125E-05
CGA:   7    -0.171654809891E+03   -0.11316E-04   -0.11279E-04  1200   0.775E-05 0.789E-06
CGA:   8    -0.171654812861E+03   -0.29703E-05   -0.29601E-05  1200   0.185E-05 0.247E-06
  37 F= -.17165481E+03 E0= -.17165481E+03  d E =-.192528E-02
       N       E                     dE             d eps       ncg     rms          ort
SDA:   1    -0.171572967216E+03    0.81843E-01    0.00000E+00  1200   0.259E+00 0.000E+00
CGA:   2    -0.171638788459E+03   -0.65821E-01   -0.65827E-01  1200   0.495E-01-0.113E-05
CGA:   3    -0.171652597594E+03   -0.13809E-01   -0.13810E-01  1200   0.113E-01 0.274E-04
CGA:   4    -0.171655646290E+03   -0.30487E-02   -0.30496E-02  1200   0.202E-02 0.166E-04
CGA:   5    -0.171656351957E+03   -0.70567E-03   -0.70544E-03  1200   0.483E-03 0.948E-05
CGA:   6    -0.171656537895E+03   -0.18594E-03   -0.18577E-03  1200   0.156E-03 0.297E-05
CGA:   7    -0.171656597098E+03   -0.59203E-04   -0.59116E-04  1200   0.413E-04 0.182E-05
CGA:   8    -0.171656612686E+03   -0.15588E-04   -0.15565E-04  1200   0.101E-04 0.536E-06
CGA:   9    -0.171656616078E+03   -0.33915E-05   -0.33916E-05  1200   0.314E-05-0.135E-06
  38 F= -.17165662E+03 E0= -.17165662E+03  d E =-.372850E-02
       N       E                     dE             d eps       ncg     rms          ort
SDA:   1    -0.171644375502E+03    0.12237E-01    0.00000E+00  1200   0.436E-01 0.000E+00
CGA:   2    -0.171655389890E+03   -0.11014E-01   -0.11015E-01  1200   0.797E-02 0.110E-06
CGA:   3    -0.171657647240E+03   -0.22574E-02   -0.22579E-02  1200   0.182E-02 0.118E-04
CGA:   4    -0.171658132653E+03   -0.48541E-03   -0.48587E-03  1200   0.336E-03 0.773E-05
CGA:   5    -0.171658248836E+03   -0.11618E-03   -0.11608E-03  1200   0.783E-04 0.479E-05
CGA:   6    -0.171658279697E+03   -0.30861E-04   -0.30748E-04  1200   0.250E-04 0.179E-05
CGA:   7    -0.171658289226E+03   -0.95291E-05   -0.94900E-05  1200   0.664E-05 0.880E-06
CGA:   8    -0.171658291742E+03   -0.25159E-05   -0.25074E-05  1200   0.161E-05 0.240E-06
  39 F= -.17165829E+03 E0= -.17165829E+03  d E =-.167566E-02
       N       E                     dE             d eps       ncg     rms          ort
SDA:   1    -0.171559204758E+03    0.99084E-01    0.00000E+00  1200   0.316E+00 0.000E+00
CGA:   2    -0.171639234660E+03   -0.80030E-01   -0.80037E-01  1200   0.575E-01 0.459E-05
CGA:   3    -0.171655598469E+03   -0.16364E-01   -0.16365E-01  1200   0.132E-01 0.345E-04
CGA:   4    -0.171659107793E+03   -0.35093E-02   -0.35106E-02  1200   0.245E-02 0.213E-04
CGA:   5    -0.171659957892E+03   -0.85010E-03   -0.84979E-03  1200   0.578E-03 0.134E-04
CGA:   6    -0.171660184039E+03   -0.22615E-03   -0.22583E-03  1200   0.185E-03 0.499E-05
CGA:   7    -0.171660253937E+03   -0.69898E-04   -0.69791E-04  1200   0.506E-04 0.234E-05
CGA:   8    -0.171660272422E+03   -0.18485E-04   -0.18467E-04  1200   0.128E-04 0.585E-06
CGA:   9    -0.171660276609E+03   -0.41866E-05   -0.41854E-05  1200   0.383E-05-0.166E-06
  40 F= -.17166028E+03 E0= -.17166028E+03  d E =-.366053E-02
       N       E                     dE             d eps       ncg     rms          ort
SDA:   1    -0.171656728465E+03    0.35440E-02    0.00000E+00  1200   0.136E-01 0.000E+00
CGA:   2    -0.171660236750E+03   -0.35083E-02   -0.35082E-02  1200   0.270E-02-0.156E-05
CGA:   3    -0.171660989910E+03   -0.75316E-03   -0.75328E-03  1200   0.590E-03 0.253E-05
CGA:   4    -0.171661149027E+03   -0.15912E-03   -0.15923E-03  1200   0.108E-03 0.200E-05
CGA:   5    -0.171661185801E+03   -0.36774E-04   -0.36747E-04  1200   0.248E-04 0.168E-05
CGA:   6    -0.171661195575E+03   -0.97742E-05   -0.97570E-05  1200   0.804E-05 0.264E-06
CGA:   7    -0.171661198661E+03   -0.30860E-05   -0.30776E-05  1200   0.214E-05 0.158E-06
CGA:   8    -0.171661199475E+03   -0.81392E-06   -0.81066E-06  1200   0.495E-06 0.748E-07
  41 F= -.17166120E+03 E0= -.17166120E+03  d E =-.922866E-03
       N       E                     dE             d eps       ncg     rms          ort
SDA:   1    -0.171637373789E+03    0.23825E-01    0.00000E+00  1200   0.748E-01 0.000E+00
CGA:   2    -0.171656815544E+03   -0.19442E-01   -0.19442E-01  1200   0.148E-01-0.307E-05
CGA:   3    -0.171660965074E+03   -0.41495E-02   -0.41498E-02  1200   0.325E-02 0.599E-05
CGA:   4    -0.171661837484E+03   -0.87241E-03   -0.87269E-03  1200   0.602E-03 0.472E-05
CGA:   5    -0.171662042605E+03   -0.20512E-03   -0.20505E-03  1200   0.139E-03 0.404E-05
CGA:   6    -0.171662096498E+03   -0.53893E-04   -0.53857E-04  1200   0.444E-04 0.599E-06
CGA:   7    -0.171662113433E+03   -0.16935E-04   -0.16917E-04  1200   0.120E-04 0.335E-06
CGA:   8    -0.171662117930E+03   -0.44971E-05   -0.44907E-05  1200   0.294E-05 0.149E-06
  42 F= -.17166212E+03 E0= -.17166212E+03  d E =-.184132E-02
       N       E                     dE             d eps       ncg     rms          ort
SDA:   1    -0.171657699687E+03    0.44137E-02    0.00000E+00  1200   0.158E-01 0.000E+00
CGA:   2    -0.171661827167E+03   -0.41275E-02   -0.41273E-02  1200   0.321E-02-0.302E-05
CGA:   3    -0.171662724736E+03   -0.89757E-03   -0.89762E-03  1200   0.702E-03 0.114E-05
CGA:   4    -0.171662914429E+03   -0.18969E-03   -0.18973E-03  1200   0.130E-03 0.701E-06
CGA:   5    -0.171662958265E+03   -0.43837E-04   -0.43825E-04  1200   0.303E-04 0.846E-06
CGA:   6    -0.171662969929E+03   -0.11664E-04   -0.11668E-04  1200   0.989E-05-0.721E-07
CGA:   7    -0.171662973687E+03   -0.37572E-05   -0.37546E-05  1200   0.266E-05 0.485E-07
CGA:   8    -0.171662974676E+03   -0.98934E-06   -0.98666E-06  1200   0.634E-06 0.659E-07
  43 F= -.17166297E+03 E0= -.17166297E+03  d E =-.856746E-03
       N       E                     dE             d eps       ncg     rms          ort
SDA:   1    -0.171650451022E+03    0.12523E-01    0.00000E+00  1200   0.392E-01 0.000E+00
CGA:   2    -0.171660631784E+03   -0.10181E-01   -0.10181E-01  1200   0.797E-02-0.435E-05
CGA:   3    -0.171662855205E+03   -0.22234E-02   -0.22235E-02  1200   0.174E-02 0.175E-05
CGA:   4    -0.171663326780E+03   -0.47157E-03   -0.47164E-03  1200   0.322E-03 0.113E-05
CGA:   5    -0.171663435523E+03   -0.10874E-03   -0.10872E-03  1200   0.748E-04 0.137E-05
CGA:   6    -0.171663464106E+03   -0.28583E-04   -0.28589E-04  1200   0.242E-04-0.103E-06
CGA:   7    -0.171663473318E+03   -0.92116E-05   -0.92074E-05  1200   0.650E-05 0.766E-07
CGA:   8    -0.171663475754E+03   -0.24360E-05   -0.24316E-05  1200   0.157E-05 0.997E-07
  44 F= -.17166348E+03 E0= -.17166348E+03  d E =-.135782E-02
       N       E                     dE             d eps       ncg     rms          ort
SDA:   1    -0.171658431658E+03    0.50417E-02    0.00000E+00  1200   0.170E-01 0.000E+00
CGA:   2    -0.171663034128E+03   -0.46025E-02   -0.46024E-02  1200   0.339E-02-0.143E-05
CGA:   3    -0.171664014736E+03   -0.98061E-03   -0.98068E-03  1200   0.720E-03 0.187E-05
CGA:   4    -0.171664206255E+03   -0.19152E-03   -0.19158E-03  1200   0.145E-03 0.103E-05
CGA:   5    -0.171664252765E+03   -0.46509E-04   -0.46511E-04  1200   0.335E-04 0.560E-06
CGA:   6    -0.171664265691E+03   -0.12927E-04   -0.12915E-04  1200   0.103E-04 0.190E-06
CGA:   7    -0.171664269700E+03   -0.40084E-05   -0.39974E-05  1200   0.283E-05 0.187E-06
CGA:   8    -0.171664270728E+03   -0.10279E-05   -0.10255E-05  1200   0.729E-06 0.865E-07
  45 F= -.17166427E+03 E0= -.17166427E+03  d E =-.794974E-03
       N       E                     dE             d eps       ncg     rms          ort
SDA:   1    -0.171626469654E+03    0.37800E-01    0.00000E+00  1200   0.112E+00 0.000E+00
CGA:   2    -0.171656907281E+03   -0.30438E-01   -0.30438E-01  1200   0.226E-01-0.277E-05
CGA:   3    -0.171663411691E+03   -0.65044E-02   -0.65046E-02  1200   0.480E-02 0.514E-05
CGA:   4    -0.171664689559E+03   -0.12779E-02   -0.12780E-02  1200   0.962E-03 0.278E-05
CGA:   5    -0.171664999648E+03   -0.31009E-03   -0.31009E-03  1200   0.222E-03 0.156E-05
CGA:   6    -0.171665085049E+03   -0.85401E-04   -0.85366E-04  1200   0.684E-04 0.562E-06
CGA:   7    -0.171665111598E+03   -0.26549E-04   -0.26518E-04  1200   0.190E-04 0.503E-06
CGA:   8    -0.171665118450E+03   -0.68521E-05   -0.68457E-05  1200   0.506E-05 0.216E-06
CGA:   9    -0.171665120035E+03   -0.15849E-05   -0.15847E-05  1200   0.141E-05-0.102E-07
  46 F= -.17166512E+03 E0= -.17166512E+03  d E =-.164428E-02
       N       E                     dE             d eps       ncg     rms          ort
SDA:   1    -0.171656893578E+03    0.82249E-02    0.00000E+00  1200   0.263E-01 0.000E+00
CGA:   2    -0.171664089010E+03   -0.71954E-02   -0.71955E-02  1200   0.541E-02 0.148E-05
CGA:   3    -0.171665646631E+03   -0.15576E-02   -0.15577E-02  1200   0.115E-02 0.231E-05
CGA:   4    -0.171665949842E+03   -0.30321E-03   -0.30333E-03  1200   0.223E-03 0.207E-05
CGA:   5    -0.171666020755E+03   -0.70914E-04   -0.70919E-04  1200   0.485E-04 0.128E-05
CGA:   6    -0.171666039561E+03   -0.18806E-04   -0.18776E-04  1200   0.148E-04 0.467E-06
CGA:   7    -0.171666045428E+03   -0.58661E-05   -0.58510E-05  1200   0.424E-05 0.225E-06
CGA:   8    -0.171666046980E+03   -0.15521E-05   -0.15488E-05  1200   0.115E-05 0.102E-06
  47 F= -.17166605E+03 E0= -.17166605E+03  d E =-.926945E-03
       N       E                     dE             d eps       ncg     rms          ort
SDA:   1    -0.171635514604E+03    0.30531E-01    0.00000E+00  1200   0.898E-01 0.000E+00
CGA:   2    -0.171660072819E+03   -0.24558E-01   -0.24558E-01  1200   0.184E-01 0.233E-05
CGA:   3    -0.171665376307E+03   -0.53035E-02   -0.53037E-02  1200   0.389E-02 0.455E-05
CGA:   4    -0.171666402384E+03   -0.10261E-02   -0.10263E-02  1200   0.761E-03 0.385E-05
CGA:   5    -0.171666643843E+03   -0.24146E-03   -0.24147E-03  1200   0.167E-03 0.240E-05
CGA:   6    -0.171666708139E+03   -0.64296E-04   -0.64239E-04  1200   0.509E-04 0.913E-06
CGA:   7    -0.171666728204E+03   -0.20065E-04   -0.20036E-04  1200   0.147E-04 0.422E-06
CGA:   8    -0.171666733535E+03   -0.53314E-05   -0.53254E-05  1200   0.404E-05 0.185E-06
CGA:   9    -0.171666734806E+03   -0.12707E-05   -0.12703E-05  1200   0.111E-05-0.177E-07
  48 F= -.17166673E+03 E0= -.17166673E+03  d E =-.161477E-02
       N       E                     dE             d eps       ncg     rms          ort
SDA:   1    -0.171651363919E+03    0.15370E-01    0.00000E+00  1200   0.457E-01 0.000E+00
CGA:   2    -0.171664049515E+03   -0.12686E-01   -0.12686E-01  1200   0.986E-02 0.217E-05
CGA:   3    -0.171666833677E+03   -0.27842E-02   -0.27842E-02  1200   0.205E-02 0.136E-06
CGA:   4    -0.171667384054E+03   -0.55038E-03   -0.55045E-03  1200   0.395E-03 0.125E-05
CGA:   5    -0.171667509606E+03   -0.12555E-03   -0.12556E-03  1200   0.896E-04 0.104E-05
CGA:   6    -0.171667543866E+03   -0.34260E-04   -0.34254E-04  1200   0.275E-04 0.999E-07
CGA:   7    -0.171667554659E+03   -0.10793E-04   -0.10788E-04  1200   0.777E-05 0.718E-07
CGA:   8    -0.171667557514E+03   -0.28548E-05   -0.28520E-05  1200   0.205E-05 0.727E-07
  49 F= -.17166756E+03 E0= -.17166756E+03  d E =-.822708E-03
       N       E                     dE             d eps       ncg     rms          ort
SDA:   1    -0.171667246218E+03    0.30844E-03    0.00000E+00  1200   0.914E-03 0.000E+00
CGA:   2    -0.171667503020E+03   -0.25680E-03   -0.25681E-03  1200   0.193E-03 0.205E-06
CGA:   3    -0.171667558372E+03   -0.55352E-04   -0.55353E-04  1200   0.398E-04 0.194E-07
CGA:   4    -0.171667568992E+03   -0.10621E-04   -0.10631E-04  1200   0.779E-05 0.176E-06
CGA:   5    -0.171667571438E+03   -0.24453E-05   -0.24465E-05  1200   0.185E-05 0.131E-06
CGA:   6    -0.171667572164E+03   -0.72659E-06   -0.72587E-06  1200   0.593E-06 0.109E-07
CGA:   7    -0.171667572398E+03   -0.23316E-06   -0.23254E-06  1200   0.167E-06 0.101E-07
CGA:   8    -0.171667572458E+03   -0.60380E-07   -0.60090E-07  1200   0.410E-07 0.100E-07
  50 F= -.17166757E+03 E0= -.17166757E+03  d E =-.837652E-03
       N       E                     dE             d eps       ncg     rms          ort
SDA:   1    -0.171664152758E+03    0.34196E-02    0.00000E+00  1200   0.110E-01 0.000E+00
CGA:   2    -0.171667288436E+03   -0.31357E-02   -0.31357E-02  1200   0.229E-02-0.319E-06
CGA:   3    -0.171667946092E+03   -0.65766E-03   -0.65756E-03  1200   0.473E-03-0.248E-05
CGA:   4    -0.171668072327E+03   -0.12624E-03   -0.12617E-03  1200   0.950E-04-0.109E-05
CGA:   5    -0.171668102005E+03   -0.29677E-04   -0.29671E-04  1200   0.222E-04-0.656E-06
CGA:   6    -0.171668110397E+03   -0.83919E-05   -0.84107E-05  1200   0.711E-05-0.321E-06
CGA:   7    -0.171668113074E+03   -0.26770E-05   -0.26849E-05  1200   0.210E-05-0.137E-06
CGA:   8    -0.171668113797E+03   -0.72366E-06   -0.72380E-06  1200   0.533E-06-0.613E-08
  51 F= -.17166811E+03 E0= -.17166811E+03  d E =-.541339E-03
       N       E                     dE             d eps       ncg     rms          ort
SDA:   1    -0.171633240793E+03    0.34872E-01    0.00000E+00  1200   0.986E-01 0.000E+00
CGA:   2    -0.171661461164E+03   -0.28220E-01   -0.28220E-01  1200   0.206E-01-0.955E-06
CGA:   3    -0.171667374920E+03   -0.59138E-02   -0.59135E-02  1200   0.425E-02-0.741E-05
CGA:   4    -0.171668508706E+03   -0.11338E-02   -0.11336E-02  1200   0.853E-03-0.324E-05
CGA:   5    -0.171668774585E+03   -0.26588E-03   -0.26586E-03  1200   0.199E-03-0.185E-05
CGA:   6    -0.171668849621E+03   -0.75036E-04   -0.75087E-04  1200   0.628E-04-0.883E-06
CGA:   7    -0.171668873503E+03   -0.23882E-04   -0.23905E-04  1200   0.183E-04-0.394E-06
CGA:   8    -0.171668879999E+03   -0.64965E-05   -0.64973E-05  1200   0.469E-05-0.266E-07
CGA:   9    -0.171668881502E+03   -0.15025E-05   -0.15024E-05  1200   0.127E-05-0.116E-07
  52 F= -.17166888E+03 E0= -.17166888E+03  d E =-.130904E-02
       N       E                     dE             d eps       ncg     rms          ort
SDA:   1    -0.171667753745E+03    0.11263E-02    0.00000E+00  1200   0.396E-02 0.000E+00
CGA:   2    -0.171668904471E+03   -0.11507E-02   -0.11507E-02  1200   0.854E-03 0.108E-06
CGA:   3    -0.171669149690E+03   -0.24522E-03   -0.24517E-03  1200   0.171E-03-0.127E-05
CGA:   4    -0.171669195324E+03   -0.45634E-04   -0.45605E-04  1200   0.339E-04-0.523E-06
CGA:   5    -0.171669205751E+03   -0.10427E-04   -0.10423E-04  1200   0.765E-05-0.304E-06
CGA:   6    -0.171669208648E+03   -0.28965E-05   -0.29052E-05  1200   0.244E-05-0.141E-06
CGA:   7    -0.171669209573E+03   -0.92513E-06   -0.92888E-06  1200   0.770E-06-0.595E-07
CGA:   8    -0.171669209833E+03   -0.25984E-06   -0.25998E-06  1200   0.209E-06-0.676E-08
  53 F= -.17166921E+03 E0= -.17166921E+03  d E =-.328331E-03
       N       E                     dE             d eps       ncg     rms          ort
SDA:   1    -0.171656789252E+03    0.12420E-01    0.00000E+00  1200   0.356E-01 0.000E+00
CGA:   2    -0.171667166710E+03   -0.10377E-01   -0.10377E-01  1200   0.764E-02 0.482E-06
CGA:   3    -0.171669368266E+03   -0.22016E-02   -0.22014E-02  1200   0.151E-02-0.381E-05
CGA:   4    -0.171669773386E+03   -0.40512E-03   -0.40503E-03  1200   0.302E-03-0.155E-05
CGA:   5    -0.171669866060E+03   -0.92674E-04   -0.92662E-04  1200   0.677E-04-0.867E-06
CGA:   6    -0.171669891482E+03   -0.25421E-04   -0.25443E-04  1200   0.211E-04-0.381E-06
CGA:   7    -0.171669899502E+03   -0.80204E-05   -0.80300E-05  1200   0.649E-05-0.160E-06
CGA:   8    -0.171669901761E+03   -0.22590E-05   -0.22595E-05  1200   0.177E-05-0.190E-07
  54 F= -.17166990E+03 E0= -.17166990E+03  d E =-.102026E-02
       N       E                     dE             d eps       ncg     rms          ort
SDA:   1    -0.171617520199E+03    0.52379E-01    0.00000E+00  1200   0.142E+00 0.000E+00
CGA:   2    -0.171659034465E+03   -0.41514E-01   -0.41514E-01  1200   0.305E-01-0.229E-06
CGA:   3    -0.171667836807E+03   -0.88023E-02   -0.88021E-02  1200   0.605E-02-0.728E-05
CGA:   4    -0.171669455656E+03   -0.16188E-02   -0.16187E-02  1200   0.121E-02-0.313E-05
CGA:   5    -0.171669825795E+03   -0.37014E-03   -0.37012E-03  1200   0.270E-03-0.163E-05
CGA:   6    -0.171669927416E+03   -0.10162E-03   -0.10166E-03  1200   0.839E-04-0.676E-06
CGA:   7    -0.171669959464E+03   -0.32048E-04   -0.32066E-04  1200   0.258E-04-0.293E-06
CGA:   8    -0.171669968509E+03   -0.90448E-05   -0.90459E-05  1200   0.704E-05-0.423E-07
CGA:   9    -0.171669970728E+03   -0.22190E-05   -0.22186E-05  1200   0.185E-05-0.316E-07
  55 F= -.17166997E+03 E0= -.17166997E+03  d E =-.108923E-02
       N       E                     dE             d eps       ncg     rms          ort
SDA:   1    -0.171658929633E+03    0.11039E-01    0.00000E+00  1200   0.305E-01 0.000E+00
CGA:   2    -0.171667819930E+03   -0.88903E-02   -0.88904E-02  1200   0.653E-02 0.888E-06
CGA:   3    -0.171669702546E+03   -0.18826E-02   -0.18827E-02  1200   0.129E-02 0.349E-05
CGA:   4    -0.171670047853E+03   -0.34531E-03   -0.34539E-03  1200   0.257E-03 0.145E-05
CGA:   5    -0.171670126696E+03   -0.78843E-04   -0.78856E-04  1200   0.569E-04 0.901E-06
CGA:   6    -0.171670148006E+03   -0.21310E-04   -0.21288E-04  1200   0.173E-04 0.423E-06
CGA:   7    -0.171670154660E+03   -0.66541E-05   -0.66442E-05  1200   0.524E-05 0.168E-06
CGA:   8    -0.171670156542E+03   -0.18814E-05   -0.18807E-05  1200   0.143E-05 0.213E-07
  56 F= -.17167016E+03 E0= -.17167016E+03  d E =-.127504E-02
       N       E                     dE             d eps       ncg     rms          ort
SDA:   1    -0.171666217668E+03    0.39370E-02    0.00000E+00  1200   0.122E-01 0.000E+00
CGA:   2    -0.171669703371E+03   -0.34857E-02   -0.34858E-02  1200   0.254E-02 0.174E-05
CGA:   3    -0.171670428442E+03   -0.72507E-03   -0.72502E-03  1200   0.520E-03-0.149E-05
CGA:   4    -0.171670567535E+03   -0.13909E-03   -0.13907E-03  1200   0.104E-03-0.382E-06
CGA:   5    -0.171670600042E+03   -0.32507E-04   -0.32506E-04  1200   0.239E-04-0.200E-06
CGA:   6    -0.171670608966E+03   -0.89235E-05   -0.89263E-05  1200   0.750E-05-0.512E-07
CGA:   7    -0.171670611763E+03   -0.27969E-05   -0.27975E-05  1200   0.221E-05-0.125E-07
CGA:   8    -0.171670612541E+03   -0.77820E-06   -0.77814E-06  1200   0.569E-06 0.230E-08
  57 F= -.17167061E+03 E0= -.17167061E+03  d E =-.455999E-03
       N       E                     dE             d eps       ncg     rms          ort
SDA:   1    -0.171631979072E+03    0.38633E-01    0.00000E+00  1200   0.110E+00 0.000E+00
CGA:   2    -0.171663374079E+03   -0.31395E-01   -0.31395E-01  1200   0.227E-01 0.470E-05
CGA:   3    -0.171669879264E+03   -0.65052E-02   -0.65050E-02  1200   0.464E-02-0.449E-05
CGA:   4    -0.171671119804E+03   -0.12405E-02   -0.12405E-02  1200   0.932E-03-0.109E-05
CGA:   5    -0.171671410175E+03   -0.29037E-03   -0.29037E-03  1200   0.217E-03-0.459E-06
CGA:   6    -0.171671491324E+03   -0.81149E-04   -0.81153E-04  1200   0.685E-04-0.720E-07
CGA:   7    -0.171671516923E+03   -0.25599E-04   -0.25599E-04  1200   0.203E-04-0.522E-08
CGA:   8    -0.171671524102E+03   -0.71789E-05   -0.71789E-05  1200   0.529E-05-0.101E-08
CGA:   9    -0.171671525828E+03   -0.17254E-05   -0.17255E-05  1200   0.143E-05-0.393E-07
  58 F= -.17167153E+03 E0= -.17167153E+03  d E =-.136929E-02
       N       E                     dE             d eps       ncg     rms          ort
SDA:   1    -0.171513149056E+03    0.15838E+00    0.00000E+00  1200   0.440E+00 0.000E+00
CGA:   2    -0.171638669812E+03   -0.12552E+00   -0.12552E+00  1200   0.909E-01-0.539E-06
CGA:   3    -0.171664703398E+03   -0.26034E-01   -0.26033E-01  1200   0.186E-01-0.825E-05
CGA:   4    -0.171669683178E+03   -0.49798E-02   -0.49797E-02  1200   0.373E-02-0.201E-05
CGA:   5    -0.171670846628E+03   -0.11634E-02   -0.11634E-02  1200   0.866E-03-0.519E-06
CGA:   6    -0.171671171543E+03   -0.32492E-03   -0.32491E-03  1200   0.274E-03 0.141E-06
CGA:   7    -0.171671273933E+03   -0.10239E-03   -0.10239E-03  1200   0.811E-04 0.599E-07
CGA:   8    -0.171671302619E+03   -0.28686E-04   -0.28686E-04  1200   0.211E-04-0.144E-07
CGA:   9    -0.171671309491E+03   -0.68713E-05   -0.68713E-05  1200   0.569E-05-0.987E-07
CGA:  10    -0.171671311368E+03   -0.18777E-05   -0.18779E-05  1200   0.158E-05-0.359E-07
  59 F= -.17167131E+03 E0= -.17167131E+03  d E =-.115483E-02
       N       E                     dE             d eps       ncg     rms          ort
SDA:   1    -0.171618661602E+03    0.52648E-01    0.00000E+00  1200   0.148E+00 0.000E+00
CGA:   2    -0.171660815873E+03   -0.42154E-01   -0.42155E-01  1200   0.305E-01 0.198E-05
CGA:   3    -0.171669552619E+03   -0.87367E-02   -0.87370E-02  1200   0.625E-02 0.522E-05
CGA:   4    -0.171671223457E+03   -0.16708E-02   -0.16709E-02  1200   0.125E-02 0.147E-05
CGA:   5    -0.171671613264E+03   -0.38981E-03   -0.38982E-03  1200   0.289E-03 0.102E-05
CGA:   6    -0.171671721536E+03   -0.10827E-03   -0.10825E-03  1200   0.909E-04 0.410E-06
CGA:   7    -0.171671755560E+03   -0.34023E-04   -0.34019E-04  1200   0.269E-04 0.802E-07
CGA:   8    -0.171671765090E+03   -0.95299E-05   -0.95299E-05  1200   0.700E-05 0.734E-09
CGA:   9    -0.171671767349E+03   -0.22595E-05   -0.22596E-05  1200   0.186E-05 0.171E-07
  60 F= -.17167177E+03 E0= -.17167177E+03  d E =-.161081E-02
       N       E                     dE             d eps       ncg     rms          ort
SDA:   1    -0.171652104999E+03    0.19660E-01    0.00000E+00  1200   0.547E-01 0.000E+00
CGA:   2    -0.171668150650E+03   -0.16046E-01   -0.16046E-01  1200   0.121E-01 0.383E-05
CGA:   3    -0.171671581054E+03   -0.34304E-02   -0.34303E-02  1200   0.242E-02-0.237E-05
CGA:   4    -0.171672225385E+03   -0.64433E-03   -0.64430E-03  1200   0.471E-03-0.576E-06
CGA:   5    -0.171672371712E+03   -0.14633E-03   -0.14633E-03  1200   0.106E-03-0.331E-07
CGA:   6    -0.171672411490E+03   -0.39778E-04   -0.39775E-04  1200   0.326E-04 0.596E-07
CGA:   7    -0.171672423852E+03   -0.12362E-04   -0.12357E-04  1200   0.967E-05 0.917E-07
CGA:   8    -0.171672427340E+03   -0.34875E-05   -0.34873E-05  1200   0.256E-05 0.543E-08
  61 F= -.17167243E+03 E0= -.17167243E+03  d E =-.659991E-03
       N       E                     dE             d eps       ncg     rms          ort
SDA:   1    -0.171670794993E+03    0.16289E-02    0.00000E+00  1200   0.448E-02 0.000E+00
CGA:   2    -0.171672115019E+03   -0.13200E-02   -0.13201E-02  1200   0.981E-03 0.103E-05
CGA:   3    -0.171672395832E+03   -0.28081E-03   -0.28079E-03  1200   0.196E-03-0.656E-06
CGA:   4    -0.171672448187E+03   -0.52354E-04   -0.52345E-04  1200   0.383E-04-0.169E-06
CGA:   5    -0.171672460079E+03   -0.11893E-04   -0.11892E-04  1200   0.897E-05-0.285E-07
CGA:   6    -0.171672463439E+03   -0.33593E-05   -0.33589E-05  1200   0.282E-05 0.701E-08
CGA:   7    -0.171672464500E+03   -0.10614E-05   -0.10603E-05  1200   0.844E-06 0.228E-07
CGA:   8    -0.171672464805E+03   -0.30503E-06   -0.30496E-06  1200   0.228E-06 0.212E-08
  62 F= -.17167246E+03 E0= -.17167246E+03  d E =-.697456E-03
       N       E                     dE             d eps       ncg     rms          ort
SDA:   1    -0.171655756272E+03    0.16708E-01    0.00000E+00  1200   0.472E-01 0.000E+00
CGA:   2    -0.171669680425E+03   -0.13924E-01   -0.13924E-01  1200   0.101E-01 0.334E-05
CGA:   3    -0.171672565649E+03   -0.28852E-02   -0.28851E-02  1200   0.202E-02-0.195E-05
CGA:   4    -0.171673109135E+03   -0.54349E-03   -0.54346E-03  1200   0.402E-03-0.468E-06
CGA:   5    -0.171673231513E+03   -0.12238E-03   -0.12238E-03  1200   0.938E-04 0.208E-06
CGA:   6    -0.171673266065E+03   -0.34552E-04   -0.34546E-04  1200   0.291E-04 0.144E-06
CGA:   7    -0.171673277057E+03   -0.10991E-04   -0.10985E-04  1200   0.855E-05 0.124E-06
CGA:   8    -0.171673280120E+03   -0.30637E-05   -0.30636E-05  1200   0.226E-05 0.589E-08
  63 F= -.17167328E+03 E0= -.17167328E+03  d E =-.815315E-03
       N       E                     dE             d eps       ncg     rms          ort
SDA:   1    -0.171609038379E+03    0.64239E-01    0.00000E+00  1200   0.175E+00 0.000E+00
CGA:   2    -0.171660596000E+03   -0.51558E-01   -0.51558E-01  1200   0.372E-01 0.599E-05
CGA:   3    -0.171671272353E+03   -0.10676E-01   -0.10676E-01  1200   0.746E-02-0.412E-05
CGA:   4    -0.171673280625E+03   -0.20083E-02   -0.20082E-02  1200   0.148E-02-0.845E-06
CGA:   5    -0.171673733218E+03   -0.45259E-03   -0.45260E-03  1200   0.348E-03 0.537E-06
CGA:   6    -0.171673861518E+03   -0.12830E-03   -0.12828E-03  1200   0.108E-03 0.388E-06
CGA:   7    -0.171673902392E+03   -0.40873E-04   -0.40858E-04  1200   0.319E-04 0.269E-06
CGA:   8    -0.171673913780E+03   -0.11388E-04   -0.11388E-04  1200   0.840E-05 0.880E-08
CGA:   9    -0.171673916467E+03   -0.26869E-05   -0.26867E-05  1200   0.227E-05-0.244E-07
  64 F= -.17167392E+03 E0= -.17167392E+03  d E =-.145166E-02
       N       E                     dE             d eps       ncg     rms          ort
SDA:   1    -0.171639000644E+03    0.34913E-01    0.00000E+00  1200   0.958E-01 0.000E+00
CGA:   2    -0.171667330447E+03   -0.28330E-01   -0.28330E-01  1200   0.208E-01 0.524E-05
CGA:   3    -0.171673290285E+03   -0.59598E-02   -0.59597E-02  1200   0.413E-02-0.361E-05
CGA:   4    -0.171674399626E+03   -0.11093E-02   -0.11093E-02  1200   0.810E-03-0.708E-06
CGA:   5    -0.171674644237E+03   -0.24461E-03   -0.24462E-03  1200   0.187E-03 0.619E-06
CGA:   6    -0.171674713143E+03   -0.68906E-04   -0.68897E-04  1200   0.573E-04 0.195E-06
CGA:   7    -0.171674735180E+03   -0.22037E-04   -0.22029E-04  1200   0.170E-04 0.127E-06
CGA:   8    -0.171674741310E+03   -0.61297E-05   -0.61302E-05  1200   0.460E-05-0.147E-07
CGA:   9    -0.171674742754E+03   -0.14437E-05   -0.14437E-05  1200   0.124E-05 0.427E-08
  65 F= -.17167474E+03 E0= -.17167474E+03  d E =-.826287E-03
       N       E                     dE             d eps       ncg     rms          ort
SDA:   1    -0.171668119870E+03    0.66214E-02    0.00000E+00  1200   0.180E-01 0.000E+00
CGA:   2    -0.171673434901E+03   -0.53150E-02   -0.53151E-02  1200   0.391E-02 0.179E-05
CGA:   3    -0.171674553638E+03   -0.11187E-02   -0.11187E-02  1200   0.777E-03-0.137E-05
CGA:   4    -0.171674762250E+03   -0.20861E-03   -0.20860E-03  1200   0.152E-03-0.318E-06
CGA:   5    -0.171674808137E+03   -0.45887E-04   -0.45891E-04  1200   0.352E-04 0.229E-06
CGA:   6    -0.171674821111E+03   -0.12974E-04   -0.12971E-04  1200   0.108E-04 0.590E-07
CGA:   7    -0.171674825266E+03   -0.41547E-05   -0.41518E-05  1200   0.320E-05 0.451E-07
CGA:   8    -0.171674826425E+03   -0.11595E-05   -0.11598E-05  1200   0.870E-06-0.691E-08
  66 F= -.17167483E+03 E0= -.17167483E+03  d E =-.909959E-03
       N       E                     dE             d eps       ncg     rms          ort
SDA:   1    -0.171655032823E+03    0.19792E-01    0.00000E+00  1200   0.558E-01 0.000E+00
CGA:   2    -0.171671309903E+03   -0.16277E-01   -0.16277E-01  1200   0.120E-01 0.450E-05
CGA:   3    -0.171674719229E+03   -0.34093E-02   -0.34092E-02  1200   0.244E-02-0.186E-05
CGA:   4    -0.171675373620E+03   -0.65439E-03   -0.65437E-03  1200   0.473E-03-0.358E-06
CGA:   5    -0.171675518501E+03   -0.14488E-03   -0.14489E-03  1200   0.110E-03 0.717E-06
CGA:   6    -0.171675559054E+03   -0.40553E-04   -0.40540E-04  1200   0.333E-04 0.260E-06
CGA:   7    -0.171675571895E+03   -0.12841E-04   -0.12832E-04  1200   0.971E-05 0.143E-06
CGA:   8    -0.171675575420E+03   -0.35251E-05   -0.35251E-05  1200   0.265E-05-0.784E-09
  67 F= -.17167558E+03 E0= -.17167558E+03  d E =-.748995E-03
       N       E                     dE             d eps       ncg     rms          ort
SDA:   1    -0.171628174057E+03    0.47398E-01    0.00000E+00  1200   0.130E+00 0.000E+00
CGA:   2    -0.171666078079E+03   -0.37904E-01   -0.37904E-01  1200   0.279E-01 0.883E-05
CGA:   3    -0.171674016748E+03   -0.79387E-02   -0.79385E-02  1200   0.568E-02-0.349E-05
CGA:   4    -0.171675538574E+03   -0.15218E-02   -0.15218E-02  1200   0.110E-02-0.467E-06
CGA:   5    -0.171675875825E+03   -0.33725E-03   -0.33727E-03  1200   0.256E-03 0.117E-05
CGA:   6    -0.171675970399E+03   -0.94574E-04   -0.94551E-04  1200   0.779E-04 0.455E-06
CGA:   7    -0.171676000379E+03   -0.29980E-04   -0.29965E-04  1200   0.228E-04 0.234E-06
CGA:   8    -0.171676008609E+03   -0.82299E-05   -0.82300E-05  1200   0.618E-05-0.150E-08
CGA:   9    -0.171676010544E+03   -0.19352E-05   -0.19353E-05  1200   0.167E-05 0.622E-08
  68 F= -.17167601E+03 E0= -.17167601E+03  d E =-.118412E-02
       N       E                     dE             d eps       ncg     rms          ort
SDA:   1    -0.171648739171E+03    0.27269E-01    0.00000E+00  1200   0.756E-01 0.000E+00
CGA:   2    -0.171670953376E+03   -0.22214E-01   -0.22214E-01  1200   0.165E-01 0.609E-05
CGA:   3    -0.171675676648E+03   -0.47233E-02   -0.47232E-02  1200   0.327E-02-0.240E-06
CGA:   4    -0.171676553796E+03   -0.87715E-03   -0.87718E-03  1200   0.631E-03 0.618E-06
CGA:   5    -0.171676744643E+03   -0.19085E-03   -0.19086E-03  1200   0.146E-03 0.966E-06
CGA:   6    -0.171676798306E+03   -0.53663E-04   -0.53632E-04  1200   0.442E-04 0.642E-06
CGA:   7    -0.171676815439E+03   -0.17133E-04   -0.17110E-04  1200   0.128E-04 0.356E-06
CGA:   8    -0.171676820155E+03   -0.47163E-05   -0.47142E-05  1200   0.345E-05 0.522E-07
  69 F= -.17167682E+03 E0= -.17167682E+03  d E =-.809611E-03
       N       E                     dE             d eps       ncg     rms          ort
SDA:   1    -0.171641880978E+03    0.34934E-01    0.00000E+00  1200   0.949E-01 0.000E+00
CGA:   2    -0.171669795180E+03   -0.27914E-01   -0.27914E-01  1200   0.206E-01 0.690E-05
CGA:   3    -0.171675717521E+03   -0.59223E-02   -0.59223E-02  1200   0.407E-02-0.339E-06
CGA:   4    -0.171676811546E+03   -0.10940E-02   -0.10941E-02  1200   0.789E-03 0.697E-06
CGA:   5    -0.171677049988E+03   -0.23844E-03   -0.23846E-03  1200   0.184E-03 0.109E-05
CGA:   6    -0.171677117382E+03   -0.67394E-04   -0.67360E-04  1200   0.558E-04 0.735E-06
CGA:   7    -0.171677138952E+03   -0.21570E-04   -0.21544E-04  1200   0.163E-04 0.405E-06
CGA:   8    -0.171677144908E+03   -0.59566E-05   -0.59543E-05  1200   0.436E-05 0.584E-07
CGA:   9    -0.171677146302E+03   -0.13941E-05   -0.13940E-05  1200   0.121E-05-0.917E-08
  70 F= -.17167715E+03 E0= -.17167715E+03  d E =-.113576E-02
       N       E                     dE             d eps       ncg     rms          ort
SDA:   1    -0.171639582210E+03    0.37563E-01    0.00000E+00  1200   0.102E+00 0.000E+00
CGA:   2    -0.171669696797E+03   -0.30115E-01   -0.30115E-01  1200   0.228E-01 0.736E-05
CGA:   3    -0.171676223509E+03   -0.65267E-02   -0.65266E-02  1200   0.446E-02-0.776E-06
CGA:   4    -0.171677424824E+03   -0.12013E-02   -0.12013E-02  1200   0.865E-03 0.329E-06
CGA:   5    -0.171677686609E+03   -0.26178E-03   -0.26180E-03  1200   0.201E-03 0.857E-06
CGA:   6    -0.171677760209E+03   -0.73600E-04   -0.73571E-04  1200   0.605E-04 0.595E-06
CGA:   7    -0.171677783470E+03   -0.23261E-04   -0.23241E-04  1200   0.178E-04 0.333E-06
CGA:   8    -0.171677789840E+03   -0.63697E-05   -0.63680E-05  1200   0.490E-05 0.543E-07
CGA:   9    -0.171677791391E+03   -0.15508E-05   -0.15507E-05  1200   0.131E-05-0.680E-08
  71 F= -.17167779E+03 E0= -.17167779E+03  d E =-.645088E-03
       N       E                     dE             d eps       ncg     rms          ort
SDA:   1    -0.171677541843E+03    0.24800E-03    0.00000E+00  1200   0.679E-03 0.000E+00
CGA:   2    -0.171677741953E+03   -0.20011E-03   -0.20012E-03  1200   0.153E-03 0.417E-06
CGA:   3    -0.171677785608E+03   -0.43655E-04   -0.43655E-04  1200   0.304E-04-0.117E-08
CGA:   4    -0.171677793785E+03   -0.81767E-05   -0.81779E-05  1200   0.584E-05 0.224E-07
CGA:   5    -0.171677795537E+03   -0.17521E-05   -0.17533E-05  1200   0.135E-05 0.604E-07
CGA:   6    -0.171677796043E+03   -0.50567E-06   -0.50354E-06  1200   0.408E-06 0.418E-07
CGA:   7    -0.171677796204E+03   -0.16118E-06   -0.15973E-06  1200   0.115E-06 0.251E-07
CGA:   8    -0.171677796249E+03   -0.45241E-07   -0.45022E-07  1200   0.318E-07 0.512E-08
  72 F= -.17167780E+03 E0= -.17167780E+03  d E =-.649947E-03
       N       E                     dE             d eps       ncg     rms          ort
SDA:   1    -0.171666595973E+03    0.11200E-01    0.00000E+00  1200   0.304E-01 0.000E+00
CGA:   2    -0.171675678472E+03   -0.90825E-02   -0.90826E-02  1200   0.721E-02 0.159E-05
CGA:   3    -0.171677753692E+03   -0.20752E-02   -0.20752E-02  1200   0.135E-02-0.154E-05
CGA:   4    -0.171678119946E+03   -0.36625E-03   -0.36622E-03  1200   0.267E-03-0.656E-06
CGA:   5    -0.171678200073E+03   -0.80127E-04   -0.80125E-04  1200   0.618E-04-0.109E-06
CGA:   6    -0.171678222941E+03   -0.22868E-04   -0.22870E-04  1200   0.185E-04-0.415E-07
CGA:   7    -0.171678230075E+03   -0.71341E-05   -0.71369E-05  1200   0.544E-05-0.435E-07
CGA:   8    -0.171678231999E+03   -0.19239E-05   -0.19239E-05  1200   0.146E-05-0.253E-08
  73 F= -.17167823E+03 E0= -.17167823E+03  d E =-.435750E-03
       N       E                     dE             d eps       ncg     rms          ort
SDA:   1    -0.171663811352E+03    0.14419E-01    0.00000E+00  1200   0.382E-01 0.000E+00
CGA:   2    -0.171675205164E+03   -0.11394E-01   -0.11394E-01  1200   0.902E-02 0.179E-05
CGA:   3    -0.171677805977E+03   -0.26008E-02   -0.26007E-02  1200   0.169E-02-0.174E-05
CGA:   4    -0.171678264130E+03   -0.45815E-03   -0.45812E-03  1200   0.333E-03-0.736E-06
CGA:   5    -0.171678364281E+03   -0.10015E-03   -0.10015E-03  1200   0.778E-04-0.122E-06
CGA:   6    -0.171678393062E+03   -0.28780E-04   -0.28782E-04  1200   0.234E-04-0.417E-07
CGA:   7    -0.171678402069E+03   -0.90069E-05   -0.90099E-05  1200   0.691E-05-0.471E-07
CGA:   8    -0.171678404508E+03   -0.24397E-05   -0.24397E-05  1200   0.187E-05-0.352E-08
  74 F= -.17167840E+03 E0= -.17167840E+03  d E =-.608259E-03
       N       E                     dE             d eps       ncg     rms          ort
SDA:   1    -0.171672265166E+03    0.61369E-02    0.00000E+00  1200   0.173E-01 0.000E+00
CGA:   2    -0.171677389813E+03   -0.51246E-02   -0.51247E-02  1200   0.397E-02 0.513E-06
CGA:   3    -0.171678535810E+03   -0.11460E-02   -0.11459E-02  1200   0.725E-03-0.150E-05
CGA:   4    -0.171678733552E+03   -0.19774E-03   -0.19770E-03  1200   0.144E-03-0.829E-06
CGA:   5    -0.171678776331E+03   -0.42779E-04   -0.42769E-04  1200   0.339E-04-0.445E-06
CGA:   6    -0.171678788629E+03   -0.12298E-04   -0.12304E-04  1200   0.103E-04-0.136E-06
CGA:   7    -0.171678792546E+03   -0.39162E-05   -0.39225E-05  1200   0.316E-05-0.102E-06
CGA:   8    -0.171678793635E+03   -0.10895E-05   -0.10898E-05  1200   0.859E-06-0.112E-07
  75 F= -.17167879E+03 E0= -.17167879E+03  d E =-.389127E-03
       N       E                     dE             d eps       ncg     rms          ort
SDA:   1    -0.171620678277E+03    0.58114E-01    0.00000E+00  1200   0.156E+00 0.000E+00
CGA:   2    -0.171666779224E+03   -0.46101E-01   -0.46101E-01  1200   0.358E-01 0.123E-05
CGA:   3    -0.171677103038E+03   -0.10324E-01   -0.10324E-01  1200   0.656E-02-0.448E-05
CGA:   4    -0.171678887962E+03   -0.17849E-02   -0.17848E-02  1200   0.131E-02-0.242E-05
CGA:   5    -0.171679274805E+03   -0.38684E-03   -0.38681E-03  1200   0.303E-03-0.122E-05
CGA:   6    -0.171679384975E+03   -0.11017E-03   -0.11018E-03  1200   0.910E-04-0.285E-06
CGA:   7    -0.171679419722E+03   -0.34748E-04   -0.34764E-04  1200   0.275E-04-0.265E-06
CGA:   8    -0.171679429340E+03   -0.96180E-05   -0.96189E-05  1200   0.748E-05-0.313E-07
CGA:   9    -0.171679431720E+03   -0.23804E-05   -0.23802E-05  1200   0.194E-05-0.227E-07
  76 F= -.17167943E+03 E0= -.17167943E+03  d E =-.102721E-02
       N       E                     dE             d eps       ncg     rms          ort
SDA:   1    -0.171666666778E+03    0.12763E-01    0.00000E+00  1200   0.354E-01 0.000E+00
CGA:   2    -0.171677203283E+03   -0.10537E-01   -0.10536E-01  1200   0.828E-02-0.687E-06
CGA:   3    -0.171679583672E+03   -0.23804E-02   -0.23803E-02  1200   0.147E-02-0.178E-05
CGA:   4    -0.171679985590E+03   -0.40192E-03   -0.40184E-03  1200   0.293E-03-0.151E-05
CGA:   5    -0.171680071772E+03   -0.86183E-04   -0.86161E-04  1200   0.674E-04-0.878E-06
CGA:   6    -0.171680096337E+03   -0.24565E-04   -0.24579E-04  1200   0.205E-04-0.306E-06
CGA:   7    -0.171680104121E+03   -0.77836E-05   -0.77922E-05  1200   0.628E-05-0.143E-06
CGA:   8    -0.171680106300E+03   -0.21791E-05   -0.21793E-05  1200   0.170E-05-0.970E-08
  77 F= -.17168011E+03 E0= -.17168011E+03  d E =-.674580E-03
       N       E                     dE             d eps       ncg     rms          ort
SDA:   1    -0.171612170676E+03    0.67933E-01    0.00000E+00  1200   0.181E+00 0.000E+00
CGA:   2    -0.171665947984E+03   -0.53777E-01   -0.53777E-01  1200   0.422E-01-0.413E-05
CGA:   3    -0.171678085447E+03   -0.12137E-01   -0.12137E-01  1200   0.749E-02-0.334E-05
CGA:   4    -0.171680127576E+03   -0.20421E-02   -0.20420E-02  1200   0.148E-02-0.335E-05
CGA:   5    -0.171680565127E+03   -0.43755E-03   -0.43750E-03  1200   0.342E-03-0.187E-05
CGA:   6    -0.171680689489E+03   -0.12436E-03   -0.12439E-03  1200   0.104E-03-0.564E-06
CGA:   7    -0.171680728767E+03   -0.39278E-04   -0.39294E-04  1200   0.317E-04-0.271E-06
CGA:   8    -0.171680739808E+03   -0.11041E-04   -0.11041E-04  1200   0.856E-05-0.197E-07
CGA:   9    -0.171680742535E+03   -0.27276E-05   -0.27274E-05  1200   0.222E-05-0.265E-07
  78 F= -.17168074E+03 E0= -.17168074E+03  d E =-.131081E-02
       N       E                     dE             d eps       ncg     rms          ort
SDA:   1    -0.171668568009E+03    0.12172E-01    0.00000E+00  1200   0.335E-01 0.000E+00
CGA:   2    -0.171678463340E+03   -0.98953E-02   -0.98953E-02  1200   0.785E-02 0.262E-07
CGA:   3    -0.171680718194E+03   -0.22549E-02   -0.22548E-02  1200   0.140E-02-0.103E-05
CGA:   4    -0.171681098540E+03   -0.38035E-03   -0.38030E-03  1200   0.278E-03-0.842E-06
CGA:   5    -0.171681179886E+03   -0.81346E-04   -0.81329E-04  1200   0.631E-04-0.646E-06
CGA:   6    -0.171681202892E+03   -0.23007E-04   -0.23014E-04  1200   0.189E-04-0.149E-06
CGA:   7    -0.171681210129E+03   -0.72367E-05   -0.72432E-05  1200   0.579E-05-0.102E-06
CGA:   8    -0.171681212147E+03   -0.20179E-05   -0.20179E-05  1200   0.157E-05 0.884E-09
  79 F= -.17168121E+03 E0= -.17168121E+03  d E =-.469612E-03
       N       E                     dE             d eps       ncg     rms          ort
SDA:   1    -0.171568199333E+03    0.11301E+00    0.00000E+00  1200   0.302E+00 0.000E+00
CGA:   2    -0.171657291791E+03   -0.89092E-01   -0.89092E-01  1200   0.706E-01-0.103E-04
CGA:   3    -0.171677580988E+03   -0.20289E-01   -0.20289E-01  1200   0.125E-01-0.112E-05
CGA:   4    -0.171680995908E+03   -0.34149E-02   -0.34148E-02  1200   0.249E-02-0.257E-05
CGA:   5    -0.171681726343E+03   -0.73044E-03   -0.73039E-03  1200   0.566E-03-0.174E-05
CGA:   6    -0.171681932166E+03   -0.20582E-03   -0.20583E-03  1200   0.169E-03-0.210E-06
CGA:   7    -0.171681996525E+03   -0.64359E-04   -0.64372E-04  1200   0.514E-04-0.212E-06
CGA:   8    -0.171682014538E+03   -0.18012E-04   -0.18012E-04  1200   0.140E-04 0.116E-07
CGA:   9    -0.171682018992E+03   -0.44549E-05   -0.44545E-05  1200   0.366E-05-0.467E-07
  80 F= -.17168202E+03 E0= -.17168202E+03  d E =-.127646E-02
       N       E                     dE             d eps       ncg     rms          ort
SDA:   1    -0.171663450745E+03    0.18564E-01    0.00000E+00  1200   0.494E-01 0.000E+00
CGA:   2    -0.171678036719E+03   -0.14586E-01   -0.14586E-01  1200   0.116E-01-0.157E-06
CGA:   3    -0.171681362857E+03   -0.33261E-02   -0.33261E-02  1200   0.206E-02-0.119E-05
CGA:   4    -0.171681923397E+03   -0.56054E-03   -0.56049E-03  1200   0.409E-03-0.104E-05
CGA:   5    -0.171682043263E+03   -0.11987E-03   -0.11985E-03  1200   0.931E-04-0.787E-06
CGA:   6    -0.171682077210E+03   -0.33947E-04   -0.33955E-04  1200   0.279E-04-0.168E-06
CGA:   7    -0.171682087887E+03   -0.10677E-04   -0.10685E-04  1200   0.854E-05-0.120E-06
CGA:   8    -0.171682090869E+03   -0.29823E-05   -0.29823E-05  1200   0.233E-05 0.594E-11
  81 F= -.17168209E+03 E0= -.17168209E+03  d E =-.134833E-02
       N       E                     dE             d eps       ncg     rms          ort
SDA:   1    -0.171649351171E+03    0.32737E-01    0.00000E+00  1200   0.877E-01 0.000E+00
CGA:   2    -0.171675408468E+03   -0.26057E-01   -0.26057E-01  1200   0.211E-01-0.733E-06
CGA:   3    -0.171681513155E+03   -0.61047E-02   -0.61047E-02  1200   0.361E-02-0.727E-06
CGA:   4    -0.171682507929E+03   -0.99477E-03   -0.99473E-03  1200   0.719E-03-0.101E-05
CGA:   5    -0.171682717995E+03   -0.21007E-03   -0.21005E-03  1200   0.164E-03-0.547E-06
CGA:   6    -0.171682777484E+03   -0.59489E-04   -0.59494E-04  1200   0.485E-04-0.971E-07
CGA:   7    -0.171682796056E+03   -0.18572E-04   -0.18577E-04  1200   0.149E-04-0.909E-07
CGA:   8    -0.171682801254E+03   -0.51982E-05   -0.51979E-05  1200   0.409E-05 0.117E-07
CGA:   9    -0.171682802543E+03   -0.12886E-05   -0.12885E-05  1200   0.107E-05-0.134E-07
  82 F= -.17168280E+03 E0= -.17168280E+03  d E =-.711674E-03
       N       E                     dE             d eps       ncg     rms          ort
SDA:   1    -0.171652606814E+03    0.30194E-01    0.00000E+00  1200   0.798E-01 0.000E+00
CGA:   2    -0.171676293059E+03   -0.23686E-01   -0.23686E-01  1200   0.192E-01-0.522E-06
CGA:   3    -0.171681847090E+03   -0.55540E-02   -0.55540E-02  1200   0.329E-02-0.716E-06
CGA:   4    -0.171682753068E+03   -0.90598E-03   -0.90593E-03  1200   0.657E-03-0.963E-06
CGA:   5    -0.171682944686E+03   -0.19162E-03   -0.19160E-03  1200   0.149E-03-0.535E-06
CGA:   6    -0.171682998823E+03   -0.54137E-04   -0.54142E-04  1200   0.440E-04-0.928E-07
CGA:   7    -0.171683015710E+03   -0.16887E-04   -0.16892E-04  1200   0.135E-04-0.888E-07
CGA:   8    -0.171683020422E+03   -0.47121E-05   -0.47118E-05  1200   0.370E-05 0.941E-08
  83 F= -.17168302E+03 E0= -.17168302E+03  d E =-.929553E-03
       N       E                     dE             d eps       ncg     rms          ort
SDA:   1    -0.171676848906E+03    0.61668E-02    0.00000E+00  1200   0.170E-01 0.000E+00
CGA:   2    -0.171681939443E+03   -0.50905E-02   -0.50906E-02  1200   0.417E-02 0.295E-06
CGA:   3    -0.171683142804E+03   -0.12034E-02   -0.12034E-02  1200   0.686E-03 0.647E-06
CGA:   4    -0.171683334636E+03   -0.19183E-03   -0.19183E-03  1200   0.133E-03 0.124E-08
CGA:   5    -0.171683373419E+03   -0.38784E-04   -0.38786E-04  1200   0.310E-04 0.786E-07
CGA:   6    -0.171683384528E+03   -0.11109E-04   -0.11107E-04  1200   0.932E-05 0.495E-07
CGA:   7    -0.171683388058E+03   -0.35298E-05   -0.35279E-05  1200   0.290E-05 0.320E-07
CGA:   8    -0.171683389067E+03   -0.10087E-05   -0.10081E-05  1200   0.787E-06 0.254E-07
[...]
SDA:   1    -0.171716083567E+03    0.54571E-03    0.00000E+00  1200   0.122E-02 0.000E+00
CGA:   2    -0.171716530162E+03   -0.44660E-03   -0.44661E-03  1200   0.315E-03-0.314E-06
CGA:   3    -0.171716614960E+03   -0.84798E-04   -0.84817E-04  1200   0.534E-04 0.302E-06
CGA:   4    -0.171716629302E+03   -0.14342E-04   -0.14343E-04  1200   0.103E-04 0.131E-07
CGA:   5    -0.171716632519E+03   -0.32171E-05   -0.32176E-05  1200   0.255E-05 0.364E-07
CGA:   6    -0.171716633457E+03   -0.93776E-06   -0.93692E-06  1200   0.783E-06 0.209E-07
CGA:   7    -0.171716633764E+03   -0.30712E-06   -0.30665E-06  1200   0.238E-06 0.734E-08
CGA:   8    -0.171716633852E+03   -0.87695E-07   -0.87749E-07  1200   0.683E-07-0.196E-08
 369 F= -.17171663E+03 E0= -.17171663E+03  d E =-.548707E-04
       N       E                     dE             d eps       ncg     rms          ort
SDA:   1    -0.171712991103E+03    0.36427E-02    0.00000E+00  1200   0.827E-02 0.000E+00
CGA:   2    -0.171715988250E+03   -0.29971E-02   -0.29972E-02  1200   0.212E-02-0.938E-06
CGA:   3    -0.171716562762E+03   -0.57451E-03   -0.57455E-03  1200   0.352E-03 0.595E-06
CGA:   4    -0.171716657771E+03   -0.95009E-04   -0.95004E-04  1200   0.693E-04-0.755E-07
CGA:   5    -0.171716679191E+03   -0.21420E-04   -0.21422E-04  1200   0.170E-04 0.124E-06
CGA:   6    -0.171716685402E+03   -0.62117E-05   -0.62118E-05  1200   0.529E-05-0.256E-08
CGA:   7    -0.171716687436E+03   -0.20338E-05   -0.20345E-05  1200   0.160E-05-0.123E-07
CGA:   8    -0.171716688011E+03   -0.57439E-06   -0.57451E-06  1200   0.429E-06-0.445E-08
 370 F= -.17171669E+03 E0= -.17171669E+03  d E =-.541591E-04
       N       E                     dE             d eps       ncg     rms          ort
SDA:   1    -0.171712924978E+03    0.37625E-02    0.00000E+00  1200   0.846E-02 0.000E+00
CGA:   2    -0.171715991626E+03   -0.30666E-02   -0.30667E-02  1200   0.216E-02-0.943E-06
CGA:   3    -0.171716578714E+03   -0.58709E-03   -0.58712E-03  1200   0.359E-03 0.599E-06
CGA:   4    -0.171716675662E+03   -0.96948E-04   -0.96944E-04  1200   0.706E-04-0.749E-07
CGA:   5    -0.171716697512E+03   -0.21849E-04   -0.21852E-04  1200   0.174E-04 0.125E-06
CGA:   6    -0.171716703880E+03   -0.63682E-05   -0.63683E-05  1200   0.544E-05-0.204E-08
CGA:   7    -0.171716705970E+03   -0.20905E-05   -0.20912E-05  1200   0.166E-05-0.125E-07
CGA:   8    -0.171716706562E+03   -0.59188E-06   -0.59202E-06  1200   0.444E-06-0.463E-08
 371 F= -.17171671E+03 E0= -.17171671E+03  d E =-.727108E-04
       N       E                     dE             d eps       ncg     rms          ort
SDA:   1    -0.171713011281E+03    0.36947E-02    0.00000E+00  1200   0.844E-02 0.000E+00
CGA:   2    -0.171716060896E+03   -0.30496E-02   -0.30496E-02  1200   0.214E-02-0.779E-06
CGA:   3    -0.171716638898E+03   -0.57800E-03   -0.57808E-03  1200   0.360E-03 0.131E-05
CGA:   4    -0.171716735138E+03   -0.96240E-04   -0.96241E-04  1200   0.700E-04 0.241E-07
CGA:   5    -0.171716756757E+03   -0.21619E-04   -0.21618E-04  1200   0.168E-04-0.489E-07
CGA:   6    -0.171716762840E+03   -0.60835E-05   -0.60788E-05  1200   0.507E-05 0.133E-06
CGA:   7    -0.171716764807E+03   -0.19666E-05   -0.19628E-05  1200   0.150E-05 0.684E-07
CGA:   8    -0.171716765372E+03   -0.56466E-06   -0.56483E-06  1200   0.405E-06-0.473E-08
 372 F= -.17171677E+03 E0= -.17171677E+03  d E =-.588093E-04
       N       E                     dE             d eps       ncg     rms          ort
SDA:   1    -0.171712325953E+03    0.44389E-02    0.00000E+00  1200   0.100E-01 0.000E+00
CGA:   2    -0.171715950716E+03   -0.36248E-02   -0.36248E-02  1200   0.254E-02-0.804E-06
CGA:   3    -0.171716637931E+03   -0.68722E-03   -0.68730E-03  1200   0.428E-03 0.142E-05
CGA:   4    -0.171716752335E+03   -0.11440E-03   -0.11441E-03  1200   0.832E-04 0.226E-07
CGA:   5    -0.171716778030E+03   -0.25695E-04   -0.25694E-04  1200   0.200E-04-0.514E-07
CGA:   6    -0.171716785264E+03   -0.72335E-05   -0.72284E-05  1200   0.603E-05 0.146E-06
CGA:   7    -0.171716787602E+03   -0.23383E-05   -0.23341E-05  1200   0.178E-05 0.752E-07
CGA:   8    -0.171716788272E+03   -0.67008E-06   -0.67028E-06  1200   0.480E-06-0.484E-08
 373 F= -.17171679E+03 E0= -.17171679E+03  d E =-.817100E-04
       N       E                     dE             d eps       ncg     rms          ort
SDA:   1    -0.171710660162E+03    0.61274E-02    0.00000E+00  1200   0.136E-01 0.000E+00
CGA:   2    -0.171715711398E+03   -0.50512E-02   -0.50512E-02  1200   0.342E-02-0.183E-06
CGA:   3    -0.171716637131E+03   -0.92573E-03   -0.92584E-03  1200   0.561E-03 0.177E-05
CGA:   4    -0.171716787813E+03   -0.15068E-03   -0.15069E-03  1200   0.109E-03 0.930E-07
CGA:   5    -0.171716821477E+03   -0.33665E-04   -0.33663E-04  1200   0.263E-04-0.962E-07
CGA:   6    -0.171716830910E+03   -0.94327E-05   -0.94253E-05  1200   0.810E-05 0.235E-06
CGA:   7    -0.171716834023E+03   -0.31132E-05   -0.31075E-05  1200   0.248E-05 0.109E-06
CGA:   8    -0.171716834935E+03   -0.91161E-06   -0.91168E-06  1200   0.681E-06-0.271E-08
 374 F= -.17171683E+03 E0= -.17171683E+03  d E =-.466623E-04
       N       E                     dE             d eps       ncg     rms          ort
SDA:   1    -0.171716826920E+03    0.71027E-05    0.00000E+00  1200   0.186E-04 0.000E+00
CGA:   2    -0.171716833796E+03   -0.68755E-05   -0.68761E-05  1200   0.470E-05-0.147E-07
CGA:   3    -0.171716835041E+03   -0.12448E-05   -0.12491E-05  1200   0.773E-06 0.630E-07
CGA:   4    -0.171716835253E+03   -0.21263E-06   -0.21287E-06  1200   0.142E-06 0.419E-08
CGA:   5    -0.171716835303E+03   -0.49919E-07   -0.49984E-07  1200   0.460E-07-0.330E-08
CGA:   6    -0.171716835316E+03   -0.13203E-07   -0.13447E-07  1200   0.127E-07 0.808E-08
CGA:   7    -0.171716835321E+03   -0.42091E-08   -0.43451E-08  1200   0.425E-08 0.430E-08
CGA:   8    -0.171716835323E+03   -0.21555E-08   -0.21256E-08  1200   0.155E-08 0.626E-09
 375 F= -.17171684E+03 E0= -.17171684E+03  d E =-.470503E-04
       N       E                     dE             d eps       ncg     rms          ort
SDA:   1    -0.171713390731E+03    0.34446E-02    0.00000E+00  1200   0.766E-02 0.000E+00
CGA:   2    -0.171716243504E+03   -0.28528E-02   -0.28528E-02  1200   0.198E-02 0.663E-07
CGA:   3    -0.171716767795E+03   -0.52429E-03   -0.52433E-03  1200   0.339E-03 0.733E-06
CGA:   4    -0.171716857554E+03   -0.89759E-04   -0.89770E-04  1200   0.653E-04 0.178E-06
CGA:   5    -0.171716878057E+03   -0.20503E-04   -0.20503E-04  1200   0.156E-04-0.320E-07
CGA:   6    -0.171716883790E+03   -0.57322E-05   -0.57273E-05  1200   0.477E-05 0.112E-06
CGA:   7    -0.171716885661E+03   -0.18711E-05   -0.18686E-05  1200   0.142E-05 0.398E-07
CGA:   8    -0.171716886190E+03   -0.52960E-06   -0.52969E-06  1200   0.379E-06-0.151E-08
 376 F= -.17171689E+03 E0= -.17171689E+03  d E =-.508676E-04
       N       E                     dE             d eps       ncg     rms          ort
SDA:   1    -0.171711831296E+03    0.50544E-02    0.00000E+00  1200   0.111E-01 0.000E+00
CGA:   2    -0.171715977427E+03   -0.41461E-02   -0.41461E-02  1200   0.286E-02 0.859E-07
CGA:   3    -0.171716737795E+03   -0.76037E-03   -0.76042E-03  1200   0.490E-03 0.876E-06
CGA:   4    -0.171716867639E+03   -0.12984E-03   -0.12986E-03  1200   0.944E-04 0.205E-06
CGA:   5    -0.171716897289E+03   -0.29650E-04   -0.29650E-04  1200   0.228E-04-0.379E-07
CGA:   6    -0.171716905651E+03   -0.83615E-05   -0.83558E-05  1200   0.701E-05 0.138E-06
CGA:   7    -0.171716908391E+03   -0.27404E-05   -0.27374E-05  1200   0.209E-05 0.488E-07
CGA:   8    -0.171716909169E+03   -0.77746E-06   -0.77753E-06  1200   0.563E-06-0.206E-08
 377 F= -.17171691E+03 E0= -.17171691E+03  d E =-.738458E-04
       N       E                     dE             d eps       ncg     rms          ort
SDA:   1    -0.171715595319E+03    0.13131E-02    0.00000E+00  1200   0.296E-02 0.000E+00
CGA:   2    -0.171716698939E+03   -0.11036E-02   -0.11036E-02  1200   0.760E-03-0.235E-06
CGA:   3    -0.171716899605E+03   -0.20067E-03   -0.20067E-03  1200   0.134E-03 0.864E-07
CGA:   4    -0.171716934962E+03   -0.35357E-04   -0.35353E-04  1200   0.256E-04-0.584E-07
CGA:   5    -0.171716943108E+03   -0.81464E-05   -0.81457E-05  1200   0.632E-05-0.951E-07
CGA:   6    -0.171716945417E+03   -0.23089E-05   -0.23080E-05  1200   0.193E-05 0.222E-07
CGA:   7    -0.171716946171E+03   -0.75439E-06   -0.75493E-06  1200   0.575E-06-0.770E-08
CGA:   8    -0.171716946385E+03   -0.21350E-06   -0.21375E-06  1200   0.149E-06-0.558E-08
 378 F= -.17171695E+03 E0= -.17171695E+03  d E =-.372163E-04
       N       E                     dE             d eps       ncg     rms          ort
SDA:   1    -0.171710723345E+03    0.62228E-02    0.00000E+00  1200   0.137E-01 0.000E+00
CGA:   2    -0.171715827315E+03   -0.51040E-02   -0.51040E-02  1200   0.354E-02-0.482E-06
CGA:   3    -0.171716759692E+03   -0.93238E-03   -0.93239E-03  1200   0.626E-03 0.184E-06
CGA:   4    -0.171716924757E+03   -0.16506E-03   -0.16506E-03  1200   0.119E-03-0.129E-06
CGA:   5    -0.171716962649E+03   -0.37891E-04   -0.37889E-04  1200   0.289E-04-0.202E-06
CGA:   6    -0.171716973274E+03   -0.10625E-04   -0.10623E-04  1200   0.882E-05 0.578E-07
CGA:   7    -0.171716976711E+03   -0.34368E-05   -0.34377E-05  1200   0.259E-05-0.139E-07
CGA:   8    -0.171716977675E+03   -0.96460E-06   -0.96511E-06  1200   0.658E-06-0.119E-07
 379 F= -.17171698E+03 E0= -.17171698E+03  d E =-.685067E-04
       N       E                     dE             d eps       ncg     rms          ort
SDA:   1    -0.171715901915E+03    0.10748E-02    0.00000E+00  1200   0.242E-02 0.000E+00
CGA:   2    -0.171716812784E+03   -0.91087E-03   -0.91091E-03  1200   0.597E-03-0.101E-05
CGA:   3    -0.171716973946E+03   -0.16116E-03   -0.16114E-03  1200   0.101E-03-0.315E-06
CGA:   4    -0.171717000907E+03   -0.26961E-04   -0.26934E-04  1200   0.200E-04-0.405E-06
CGA:   5    -0.171717007160E+03   -0.62537E-05   -0.62504E-05  1200   0.494E-05-0.200E-06
CGA:   6    -0.171717008958E+03   -0.17979E-05   -0.18000E-05  1200   0.158E-05-0.556E-07
CGA:   7    -0.171717009556E+03   -0.59781E-06   -0.59975E-06  1200   0.496E-06-0.368E-07
CGA:   8    -0.171717009729E+03   -0.17304E-06   -0.17334E-06  1200   0.133E-06-0.134E-07
 380 F= -.17171701E+03 E0= -.17171701E+03  d E =-.320539E-04
       N       E                     dE             d eps       ncg     rms          ort
SDA:   1    -0.171707508770E+03    0.95008E-02    0.00000E+00  1200   0.209E-01 0.000E+00
CGA:   2    -0.171715345584E+03   -0.78368E-02   -0.78369E-02  1200   0.518E-02-0.245E-05
CGA:   3    -0.171716738567E+03   -0.13930E-02   -0.13929E-02  1200   0.884E-03-0.100E-05
CGA:   4    -0.171716972855E+03   -0.23429E-03   -0.23421E-03  1200   0.174E-03-0.119E-05
CGA:   5    -0.171717027038E+03   -0.54184E-04   -0.54173E-04  1200   0.417E-04-0.593E-06
CGA:   6    -0.171717042321E+03   -0.15282E-04   -0.15288E-04  1200   0.131E-04-0.141E-06
CGA:   7    -0.171717047315E+03   -0.49948E-05   -0.50003E-05  1200   0.398E-05-0.104E-06
CGA:   8    -0.171717048739E+03   -0.14232E-05   -0.14243E-05  1200   0.104E-05-0.421E-07
 381 F= -.17171705E+03 E0= -.17171705E+03  d E =-.710635E-04
       N       E                     dE             d eps       ncg     rms          ort
SDA:   1    -0.171715464592E+03    0.15827E-02    0.00000E+00  1200   0.353E-02 0.000E+00
CGA:   2    -0.171716792285E+03   -0.13277E-02   -0.13277E-02  1200   0.889E-03-0.700E-06
CGA:   3    -0.171717029831E+03   -0.23755E-03   -0.23754E-03  1200   0.149E-03-0.118E-06
CGA:   4    -0.171717069487E+03   -0.39656E-04   -0.39636E-04  1200   0.285E-04-0.289E-06
CGA:   5    -0.171717078377E+03   -0.88899E-05   -0.88878E-05  1200   0.689E-05-0.125E-06
CGA:   6    -0.171717080881E+03   -0.25045E-05   -0.25054E-05  1200   0.218E-05-0.236E-07
CGA:   7    -0.171717081715E+03   -0.83377E-06   -0.83500E-06  1200   0.691E-06-0.227E-07
CGA:   8    -0.171717081961E+03   -0.24569E-06   -0.24599E-06  1200   0.191E-06-0.120E-07
 382 F= -.17171708E+03 E0= -.17171708E+03  d E =-.332220E-04
       N       E                     dE             d eps       ncg     rms          ort
SDA:   1    -0.171713856270E+03    0.32254E-02    0.00000E+00  1200   0.707E-02 0.000E+00
CGA:   2    -0.171716516154E+03   -0.26599E-02   -0.26599E-02  1200   0.179E-02-0.969E-06
CGA:   3    -0.171716994060E+03   -0.47791E-03   -0.47789E-03  1200   0.302E-03-0.172E-06
CGA:   4    -0.171717074236E+03   -0.80176E-04   -0.80148E-04  1200   0.577E-04-0.414E-06
CGA:   5    -0.171717092193E+03   -0.17958E-04   -0.17954E-04  1200   0.137E-04-0.179E-06
CGA:   6    -0.171717097174E+03   -0.49807E-05   -0.49818E-05  1200   0.428E-05-0.291E-07
CGA:   7    -0.171717098816E+03   -0.16420E-05   -0.16438E-05  1200   0.134E-05-0.309E-07
CGA:   8    -0.171717099296E+03   -0.47968E-06   -0.48020E-06  1200   0.365E-06-0.169E-07
 383 F= -.17171710E+03 E0= -.17171710E+03  d E =-.505570E-04
       N       E                     dE             d eps       ncg     rms          ort
SDA:   1    -0.171715507211E+03    0.15916E-02    0.00000E+00  1200   0.354E-02 0.000E+00
CGA:   2    -0.171716849587E+03   -0.13424E-02   -0.13423E-02  1200   0.878E-03 0.632E-06
CGA:   3    -0.171717084976E+03   -0.23539E-03   -0.23542E-03  1200   0.149E-03 0.392E-06
CGA:   4    -0.171717124656E+03   -0.39680E-04   -0.39690E-04  1200   0.289E-04 0.154E-06
CGA:   5    -0.171717133701E+03   -0.90447E-05   -0.90456E-05  1200   0.705E-05 0.583E-07
CGA:   6    -0.171717136265E+03   -0.25645E-05   -0.25612E-05  1200   0.218E-05 0.970E-07
CGA:   7    -0.171717137103E+03   -0.83716E-06   -0.83553E-06  1200   0.663E-06 0.343E-07
CGA:   8    -0.171717137348E+03   -0.24554E-06   -0.24556E-06  1200   0.176E-06-0.108E-08
 384 F= -.17171714E+03 E0= -.17171714E+03  d E =-.380524E-04
       N       E                     dE             d eps       ncg     rms          ort
SDA:   1    -0.171702513973E+03    0.14623E-01    0.00000E+00  1200   0.319E-01 0.000E+00
CGA:   2    -0.171714590698E+03   -0.12077E-01   -0.12077E-01  1200   0.794E-02 0.189E-05
CGA:   3    -0.171716714900E+03   -0.21242E-02   -0.21243E-02  1200   0.136E-02 0.118E-05
CGA:   4    -0.171717074454E+03   -0.35955E-03   -0.35958E-03  1200   0.262E-03 0.431E-06
CGA:   5    -0.171717156417E+03   -0.81963E-04   -0.81966E-04  1200   0.634E-04 0.185E-06
CGA:   6    -0.171717179611E+03   -0.23194E-04   -0.23182E-04  1200   0.197E-04 0.322E-06
CGA:   7    -0.171717187149E+03   -0.75381E-05   -0.75324E-05  1200   0.598E-05 0.114E-06
CGA:   8    -0.171717189327E+03   -0.21783E-05   -0.21784E-05  1200   0.155E-05-0.273E-08
 385 F= -.17171719E+03 E0= -.17171719E+03  d E =-.900317E-04
       N       E                     dE             d eps       ncg     rms          ort
SDA:   1    -0.171713303849E+03    0.38833E-02    0.00000E+00  1200   0.851E-02 0.000E+00
CGA:   2    -0.171716538996E+03   -0.32351E-02   -0.32351E-02  1200   0.213E-02 0.108E-05
CGA:   3    -0.171717103287E+03   -0.56429E-03   -0.56434E-03  1200   0.379E-03 0.702E-06
CGA:   4    -0.171717203140E+03   -0.99854E-04   -0.99860E-04  1200   0.723E-04 0.956E-07
CGA:   5    -0.171717226297E+03   -0.23156E-04   -0.23157E-04  1200   0.175E-04 0.263E-07
CGA:   6    -0.171717232817E+03   -0.65203E-05   -0.65118E-05  1200   0.532E-05 0.194E-06
CGA:   7    -0.171717234883E+03   -0.20663E-05   -0.20616E-05  1200   0.158E-05 0.892E-07
CGA:   8    -0.171717235471E+03   -0.58788E-06   -0.58809E-06  1200   0.436E-06-0.610E-08
 386 F= -.17171724E+03 E0= -.17171724E+03  d E =-.461439E-04
       N       E                     dE             d eps       ncg     rms          ort
SDA:   1    -0.171716920215E+03    0.31467E-03    0.00000E+00  1200   0.688E-03 0.000E+00
CGA:   2    -0.171717181943E+03   -0.26173E-03   -0.26172E-03  1200   0.172E-03 0.260E-06
CGA:   3    -0.171717227399E+03   -0.45456E-04   -0.45471E-04  1200   0.303E-04 0.205E-06
CGA:   4    -0.171717235405E+03   -0.80059E-05   -0.80079E-05  1200   0.577E-05 0.280E-07
CGA:   5    -0.171717237262E+03   -0.18567E-05   -0.18568E-05  1200   0.142E-05 0.694E-08
CGA:   6    -0.171717237779E+03   -0.51769E-06   -0.51593E-06  1200   0.418E-06 0.527E-07
CGA:   7    -0.171717237943E+03   -0.16359E-06   -0.16252E-06  1200   0.123E-06 0.247E-07
CGA:   8    -0.171717237992E+03   -0.49372E-07   -0.49434E-07  1200   0.367E-07-0.118E-08
 387 F= -.17171724E+03 E0= -.17171724E+03  d E =-.486649E-04
       N       E                     dE             d eps       ncg     rms          ort
SDA:   1    -0.171713596541E+03    0.36414E-02    0.00000E+00  1200   0.794E-02 0.000E+00
CGA:   2    -0.171716629898E+03   -0.30334E-02   -0.30333E-02  1200   0.200E-02 0.544E-06
CGA:   3    -0.171717157801E+03   -0.52790E-03   -0.52791E-03  1200   0.348E-03 0.167E-06
CGA:   4    -0.171717249441E+03   -0.91640E-04   -0.91629E-04  1200   0.674E-04-0.158E-06
CGA:   5    -0.171717270519E+03   -0.21079E-04   -0.21077E-04  1200   0.160E-04-0.719E-07
CGA:   6    -0.171717276441E+03   -0.59213E-05   -0.59158E-05  1200   0.485E-05 0.138E-06
CGA:   7    -0.171717278331E+03   -0.18901E-05   -0.18875E-05  1200   0.146E-05 0.483E-07
CGA:   8    -0.171717278867E+03   -0.53616E-06   -0.53657E-06  1200   0.402E-06-0.136E-07
 388 F= -.17171728E+03 E0= -.17171728E+03  d E =-.408745E-04
       N       E                     dE             d eps       ncg     rms          ort
SDA:   1    -0.171715565716E+03    0.17126E-02    0.00000E+00  1200   0.371E-02 0.000E+00
CGA:   2    -0.171716985311E+03   -0.14196E-02   -0.14196E-02  1200   0.929E-03 0.362E-06
CGA:   3    -0.171717231548E+03   -0.24624E-03   -0.24625E-03  1200   0.161E-03 0.115E-06
CGA:   4    -0.171717274102E+03   -0.42554E-04   -0.42546E-04  1200   0.313E-04-0.110E-06
CGA:   5    -0.171717283892E+03   -0.97902E-05   -0.97894E-05  1200   0.755E-05-0.483E-07
CGA:   6    -0.171717286662E+03   -0.27698E-05   -0.27663E-05  1200   0.228E-05 0.924E-07
CGA:   7    -0.171717287552E+03   -0.88960E-06   -0.88788E-06  1200   0.692E-06 0.325E-07
CGA:   8    -0.171717287808E+03   -0.25612E-06   -0.25642E-06  1200   0.196E-06-0.933E-08
 389 F= -.17171729E+03 E0= -.17171729E+03  d E =-.498156E-04
       N       E                     dE             d eps       ncg     rms          ort
SDA:   1    -0.171712907060E+03    0.43805E-02    0.00000E+00  1200   0.963E-02 0.000E+00
CGA:   2    -0.171716553631E+03   -0.36466E-02   -0.36465E-02  1200   0.240E-02 0.449E-06
CGA:   3    -0.171717192277E+03   -0.63865E-03   -0.63856E-03  1200   0.406E-03-0.120E-05
CGA:   4    -0.171717300187E+03   -0.10791E-03   -0.10789E-03  1200   0.789E-04-0.356E-06
CGA:   5    -0.171717324407E+03   -0.24220E-04   -0.24217E-04  1200   0.189E-04-0.101E-06
CGA:   6    -0.171717331333E+03   -0.69258E-05   -0.69262E-05  1200   0.584E-05-0.912E-08
CGA:   7    -0.171717333605E+03   -0.22719E-05   -0.22746E-05  1200   0.182E-05-0.456E-07
CGA:   8    -0.171717334255E+03   -0.65070E-06   -0.65135E-06  1200   0.498E-06-0.250E-07
 390 F= -.17171733E+03 E0= -.17171733E+03  d E =-.464476E-04
       N       E                     dE             d eps       ncg     rms          ort
SDA:   1    -0.171716327253E+03    0.10064E-02    0.00000E+00  1200   0.220E-02 0.000E+00
CGA:   2    -0.171717161971E+03   -0.83472E-03   -0.83471E-03  1200   0.545E-03 0.183E-06
CGA:   3    -0.171717307754E+03   -0.14578E-03   -0.14574E-03  1200   0.920E-04-0.572E-06
CGA:   4    -0.171717332280E+03   -0.24526E-04   -0.24515E-04  1200   0.179E-04-0.167E-06
CGA:   5    -0.171717337779E+03   -0.54993E-05   -0.54982E-05  1200   0.437E-05-0.492E-07
CGA:   6    -0.171717339370E+03   -0.15912E-05   -0.15916E-05  1200   0.136E-05-0.771E-08
CGA:   7    -0.171717339900E+03   -0.52968E-06   -0.53111E-06  1200   0.437E-06-0.233E-07
CGA:   8    -0.171717340054E+03   -0.15390E-06   -0.15423E-06  1200   0.122E-06-0.121E-07
 391 F= -.17171734E+03 E0= -.17171734E+03  d E =-.522461E-04
