<?xml version="1.0" encoding="ISO-8859-1"?>
<modeling>
 <generator>
  <i name="program" type="string">vasp </i>
  <i name="version" type="string">6.3.1  </i>
  <i name="subversion" type="string">04May22 (build May 25 2022 13:42:54) complex                          parallel </i>
  <i name="platform" type="string">HPECrayEX_GCC </i>
  <i name="date" type="string">2022 09 18 </i>
  <i name="time" type="string">14:40:30 </i>
 </generator>
 <incar>
  <i type="string" name="SYSTEM">hex-FASnI3</i>
  <i type="int" name="ISTART">     0</i>
  <i type="string" name="PREC">Accurate</i>
  <i type="string" name="ALGO">ALL</i>
  <i type="int" name="ISPIN">     1</i>
  <i type="int" name="NELM">   200</i>
  <i type="int" name="NELMIN">     8</i>
  <i type="int" name="IBRION">     2</i>
  <i name="EDIFF">      0.00000500</i>
  <i name="EDIFFG">     -0.01000000</i>
  <i type="int" name="NSW">  1000</i>
  <i type="int" name="ISIF">     3</i>
  <i type="int" name="ISYM">     0</i>
  <i name="ENCUT">   1000.00000000</i>
  <i type="logical" name="LREAL"> F  </i>
  <i type="int" name="ISMEAR">     0</i>
  <i name="SIGMA">      0.05000000</i>
  <i type="logical" name="LWAVE"> F  </i>
  <i type="logical" name="LCHARG"> F  </i>
  <i type="logical" name="LASPH"> T  </i>
  <i type="string" name="GGA">MK</i>
  <i name="PARAM1">      0.12340000</i>
  <i name="PARAM2">      1.00000000</i>
  <i type="logical" name="LUSE_VDW"> T  </i>
  <i name="AGGAC">      0.00000000</i>
 </incar>
 <primitive_cell>
  <structure name="primitive_cell" >
   <crystal>
    <varray name="basis" >
     <v>      14.63700000       0.00000000       0.00000000 </v>
     <v>       0.00000000       8.78600000       0.00000000 </v>
     <v>       0.00000000       0.00000000       8.28800000 </v>
    </varray>
    <i name="volume">   1065.84245242 </i>
    <varray name="rec_basis" >
     <v>       0.06832001       0.00000000       0.00000000 </v>
     <v>       0.00000000       0.11381744       0.00000000 </v>
     <v>       0.00000000       0.00000000       0.12065637 </v>
    </varray>
   </crystal>
   <varray name="positions" >
    <v>       0.65477722       0.53770112       0.28002646 </v>
    <v>       0.33374952       0.47221309       0.78616470 </v>
    <v>       0.85084249       0.04331646       0.77365034 </v>
    <v>       0.16656185       0.03498578       0.22223027 </v>
    <v>       0.65275110       0.42700353       0.06166800 </v>
    <v>       0.65058231       0.31166843       0.33839839 </v>
    <v>       0.64962976       0.43954288       0.49868082 </v>
    <v>       0.65930046       0.62334695       0.05529186 </v>
    <v>       0.65664694       0.65091585       0.33258408 </v>
    <v>       0.35768402       0.59770567       0.58168371 </v>
    <v>       0.43932273       0.61258122       0.84476448 </v>
    <v>       0.40272631       0.48637298       0.99457963 </v>
    <v>       0.27045299       0.46620469       0.57049427 </v>
    <v>       0.29060413       0.38189991       0.83313804 </v>
    <v>       0.85119257       0.81679041       0.83091664 </v>
    <v>       0.86071179       0.93430170       0.55500930 </v>
    <v>       0.85678887       0.13071201       0.54966964 </v>
    <v>       0.84697377       0.94404787       0.99166701 </v>
    <v>       0.84800973       0.15610095       0.82714557 </v>
    <v>       0.14151266       0.92739348       0.43791750 </v>
    <v>       0.17592632       0.80845098       0.16924049 </v>
    <v>       0.19512124       0.93410677       0.01064452 </v>
    <v>       0.14047368       0.12393591       0.44081200 </v>
    <v>       0.17217304       0.14751170       0.16904221 </v>
    <v>       0.58910000       0.23970000       0.79700000 </v>
    <v>       0.41090000       0.76030000       0.29700000 </v>
    <v>       0.91090000       0.73970000       0.29700000 </v>
    <v>       0.08910000       0.26030000       0.79700000 </v>
    <v>       0.33402000       0.99870000       0.75710000 </v>
    <v>       0.66598000       0.00130000       0.25710000 </v>
    <v>       0.16598000       0.49870000       0.25710000 </v>
    <v>       0.83402000       0.50130000       0.75710000 </v>
    <v>       0.41170000       0.24010000       0.20500000 </v>
    <v>       0.58830000       0.75990000       0.70500000 </v>
    <v>       0.08830000       0.74010000       0.70500000 </v>
    <v>       0.91170000       0.25990000       0.20500000 </v>
    <v>       0.65158406       0.42132262       0.37820605 </v>
    <v>       0.65579154       0.52749731       0.12228558 </v>
    <v>       0.39397988       0.53272368       0.88344822 </v>
    <v>       0.32150131       0.51318525       0.63583723 </v>
    <v>       0.85537912       0.03431811       0.61616263 </v>
    <v>       0.84929316       0.92619542       0.87116390 </v>
    <v>       0.17766296       0.91735432       0.12760058 </v>
    <v>       0.14883791       0.02706155       0.37694074 </v>
    <v>       0.50000000       0.00260000       0.00000000 </v>
    <v>       0.50000000       0.99740000       0.50000000 </v>
    <v>       0.00000000       0.50260000       0.50000000 </v>
    <v>       0.00000000       0.49740000       0.00000000 </v>
   </varray>
  </structure>
  <varray name="primitive_index" >
   <v type="int" >        1 </v>
   <v type="int" >        2 </v>
   <v type="int" >        3 </v>
   <v type="int" >        4 </v>
   <v type="int" >        5 </v>
   <v type="int" >        6 </v>
   <v type="int" >        7 </v>
   <v type="int" >        8 </v>
   <v type="int" >        9 </v>
   <v type="int" >       10 </v>
   <v type="int" >       11 </v>
   <v type="int" >       12 </v>
   <v type="int" >       13 </v>
   <v type="int" >       14 </v>
   <v type="int" >       15 </v>
   <v type="int" >       16 </v>
   <v type="int" >       17 </v>
   <v type="int" >       18 </v>
   <v type="int" >       19 </v>
   <v type="int" >       20 </v>
   <v type="int" >       21 </v>
   <v type="int" >       22 </v>
   <v type="int" >       23 </v>
   <v type="int" >       24 </v>
   <v type="int" >       25 </v>
   <v type="int" >       26 </v>
   <v type="int" >       27 </v>
   <v type="int" >       28 </v>
   <v type="int" >       29 </v>
   <v type="int" >       30 </v>
   <v type="int" >       31 </v>
   <v type="int" >       32 </v>
   <v type="int" >       33 </v>
   <v type="int" >       34 </v>
   <v type="int" >       35 </v>
   <v type="int" >       36 </v>
   <v type="int" >       37 </v>
   <v type="int" >       38 </v>
   <v type="int" >       39 </v>
   <v type="int" >       40 </v>
   <v type="int" >       41 </v>
   <v type="int" >       42 </v>
   <v type="int" >       43 </v>
   <v type="int" >       44 </v>
   <v type="int" >       45 </v>
   <v type="int" >       46 </v>
   <v type="int" >       47 </v>
   <v type="int" >       48 </v>
  </varray>
 </primitive_cell>
 <kpoints>
  <generation param="Gamma">
   <v type="int" name="divisions">       2        3        3 </v>
   <v name="usershift">      0.00000000       0.00000000       0.00000000 </v>
   <v name="genvec1">      0.50000000       0.00000000       0.00000000 </v>
   <v name="genvec2">      0.00000000       0.33333333       0.00000000 </v>
   <v name="genvec3">      0.00000000       0.00000000       0.33333333 </v>
   <v name="shift">      0.00000000       0.00000000       0.00000000 </v>
  </generation>
  <varray name="kpointlist" >
   <v>       0.00000000       0.00000000       0.00000000 </v>
   <v>       0.50000000       0.00000000       0.00000000 </v>
   <v>       0.00000000       0.33333333       0.00000000 </v>
   <v>       0.50000000       0.33333333       0.00000000 </v>
   <v>       0.00000000       0.00000000       0.33333333 </v>
   <v>       0.50000000       0.00000000       0.33333333 </v>
   <v>       0.00000000       0.33333333       0.33333333 </v>
   <v>       0.00000000      -0.33333333       0.33333333 </v>
   <v>       0.50000000       0.33333333       0.33333333 </v>
   <v>       0.50000000      -0.33333333       0.33333333 </v>
  </varray>
  <varray name="weights" >
   <v>       0.05555556 </v>
   <v>       0.05555556 </v>
   <v>       0.11111111 </v>
   <v>       0.11111111 </v>
   <v>       0.11111111 </v>
   <v>       0.11111111 </v>
   <v>       0.11111111 </v>
   <v>       0.11111111 </v>
   <v>       0.11111111 </v>
   <v>       0.11111111 </v>
  </varray>
 </kpoints>
 <parameters>
  <separator name="general" >
   <i type="string" name="SYSTEM">hex-FASnI3</i>
   <i type="logical" name="LCOMPAT"> F  </i>
  </separator>
  <separator name="electronic" >
   <i type="string" name="PREC">accura</i>
   <i name="ENMAX">   1000.00000000</i>
   <i name="ENAUG">    644.87300000</i>
   <i name="EDIFF">      0.00000500</i>
   <i type="int" name="IALGO">    58</i>
   <i type="int" name="IWAVPR">    11</i>
   <i type="int" name="NBANDS">   120</i>
   <i type="int" name="NBANDSLOW">    -1</i>
   <i type="int" name="NBANDSHIGH">    -1</i>
   <i name="NELECT">    176.00000000</i>
   <i type="int" name="TURBO">     0</i>
   <i type="int" name="IRESTART">     0</i>
   <i type="int" name="NREBOOT">     0</i>
   <i type="int" name="NMIN">     0</i>
   <i name="EREF">      0.00000000</i>
   <separator name="electronic smearing" >
    <i type="int" name="ISMEAR">     0</i>
    <i name="SIGMA">      0.05000000</i>
    <i name="KSPACING">      0.50000000</i>
    <i type="logical" name="KGAMMA"> T  </i>
    <i type="logical" name="KBLOWUP"> T  </i>
   </separator>
   <separator name="electronic projectors" >
    <i type="logical" name="LREAL"> F  </i>
    <v name="ROPT">      0.00000000      0.00000000      0.00000000      0.00000000      0.00000000</v>
    <i type="int" name="LMAXPAW">  -100</i>
    <i type="int" name="LMAXMIX">     2</i>
    <i type="logical" name="NLSPLINE"> F  </i>
   </separator>
   <separator name="electronic startup" >
    <i type="int" name="ISTART">     0</i>
    <i type="int" name="ICHARG">     2</i>
    <i type="int" name="INIWAV">     1</i>
   </separator>
   <separator name="electronic spin" >
    <i type="int" name="ISPIN">     1</i>
    <i type="logical" name="LNONCOLLINEAR"> F  </i>
    <v name="MAGMOM">      1.00000000      1.00000000      1.00000000      1.00000000      1.00000000      1.00000000      1.00000000      1.00000000      1.00000000      1.00000000      1.00000000      1.00000000      1.00000000      1.00000000      1.00000000      1.00000000      1.00000000      1.00000000      1.00000000      1.00000000
      1.00000000      1.00000000      1.00000000      1.00000000      1.00000000      1.00000000      1.00000000      1.00000000      1.00000000      1.00000000      1.00000000      1.00000000      1.00000000      1.00000000      1.00000000      1.00000000      1.00000000      1.00000000      1.00000000      1.00000000
      1.00000000      1.00000000      1.00000000      1.00000000      1.00000000      1.00000000      1.00000000      1.00000000</v>
    <i name="NUPDOWN">     -1.00000000</i>
    <i type="logical" name="LSORBIT"> F  </i>
    <v name="SAXIS">      0.00000000      0.00000000      1.00000000</v>
    <i type="logical" name="LSPIRAL"> F  </i>
    <v name="QSPIRAL">      0.00000000      0.00000000      0.00000000</v>
    <i type="logical" name="LZEROZ"> F  </i>
   </separator>
   <separator name="electronic exchange-correlation" >
    <i type="logical" name="LASPH"> T  </i>
    <i type="logical" name="LMETAGGA"> F  </i>
   </separator>
   <separator name="electronic convergence" >
    <i type="int" name="NELM">   200</i>
    <i type="int" name="NELMDL">    -5</i>
    <i type="int" name="NELMIN">     8</i>
    <i name="ENINI">   1000.00000000</i>
    <separator name="electronic convergence detail" >
     <i type="logical" name="LDIAG"> T  </i>
     <i type="logical" name="LSUBROT"> F  </i>
     <i name="WEIMIN">      0.00100000</i>
     <i name="EBREAK">      0.00000001</i>
     <i name="DEPER">      0.30000000</i>
     <i type="int" name="NRMM">     4</i>
     <i name="TIME">      0.40000000</i>
    </separator>
   </separator>
   <separator name="electronic mixer" >
    <i name="AMIX">      0.40000000</i>
    <i name="BMIX">      1.00000000</i>
    <i name="AMIN">      0.10000000</i>
    <i name="AMIX_MAG">      1.60000000</i>
    <i name="BMIX_MAG">      1.00000000</i>
    <separator name="electronic mixer details" >
     <i type="int" name="IMIX">     4</i>
     <i type="logical" name="MIXFIRST"> F  </i>
     <i type="int" name="MAXMIX">   -45</i>
     <i name="WC">    100.00000000</i>
     <i type="int" name="INIMIX">     1</i>
     <i type="int" name="MIXPRE">     1</i>
     <i type="int" name="MREMOVE">     5</i>
    </separator>
   </separator>
   <separator name="electronic dipolcorrection" >
    <i type="logical" name="LDIPOL"> F  </i>
    <i type="logical" name="LMONO"> F  </i>
    <i type="int" name="IDIPOL">     0</i>
    <i name="EPSILON">      1.00000000</i>
    <v name="DIPOL">   -100.00000000   -100.00000000   -100.00000000</v>
    <i name="EFIELD">      0.00000000</i>
   </separator>
  </separator>
  <separator name="grids" >
   <i type="int" name="NGX">   160</i>
   <i type="int" name="NGY">    96</i>
   <i type="int" name="NGZ">    90</i>
   <i type="int" name="NGXF">   320</i>
   <i type="int" name="NGYF">   192</i>
   <i type="int" name="NGZF">   180</i>
   <i type="logical" name="ADDGRID"> F  </i>
  </separator>
  <separator name="ionic" >
   <i type="int" name="NSW">  1000</i>
   <i type="int" name="IBRION">     2</i>
   <i type="int" name="MDALGO">     0</i>
   <i type="int" name="ISIF">     3</i>
   <i name="PSTRESS">      0.00000000</i>
   <i name="EDIFFG">     -0.01000000</i>
   <i type="int" name="NFREE">     1</i>
   <i name="POTIM">      0.50000000</i>
   <i name="SMASS">     -3.00000000</i>
   <i name="SCALEE">      1.00000000</i>
  </separator>
  <separator name="ionic md" >
   <i name="TEBEG">      0.00010000</i>
   <i name="TEEND">      0.00010000</i>
   <i type="int" name="NBLOCK">     1</i>
   <i type="int" name="KBLOCK">  1000</i>
   <i type="int" name="NPACO">   256</i>
   <i name="APACO">     10.00000000</i>
  </separator>
  <separator name="symmetry" >
   <i type="int" name="ISYM">     0</i>
   <i name="SYMPREC">      0.00001000</i>
  </separator>
  <separator name="dos" >
   <i type="int" name="LORBIT">     0</i>
   <v name="RWIGS">     -1.00000000     -1.00000000     -1.00000000     -1.00000000     -1.00000000</v>
   <i type="int" name="NEDOS">   301</i>
   <i name="EMIN">     10.00000000</i>
   <i name="EMAX">    -10.00000000</i>
   <i name="EFERMI">      0.00000000</i>
  </separator>
  <separator name="writing" >
   <i type="int" name="NWRITE">     2</i>
   <i type="logical" name="LWAVE"> F  </i>
   <i type="logical" name="LDOWNSAMPLE"> F  </i>
   <i type="logical" name="LCHARG"> F  </i>
   <i type="logical" name="LPARD"> F  </i>
   <i type="logical" name="LVTOT"> F  </i>
   <i type="logical" name="LVHAR"> F  </i>
   <i type="logical" name="LELF"> F  </i>
   <i type="logical" name="LOPTICS"> F  </i>
   <v name="STM">      0.00000000      0.00000000      0.00000000      0.00000000      0.00000000      0.00000000      0.00000000</v>
  </separator>
  <separator name="performance" >
   <i type="int" name="NPAR">     8</i>
   <i type="int" name="NSIM">     4</i>
   <i type="int" name="NBLK">    -1</i>
   <i type="logical" name="LPLANE"> T  </i>
   <i type="logical" name="LSCALAPACK"> T  </i>
   <i type="logical" name="LSCAAWARE"> F  </i>
   <i type="logical" name="LSCALU"> F  </i>
   <i type="logical" name="LASYNC"> F  </i>
   <i type="logical" name="LORBITALREAL"> F  </i>
  </separator>
  <separator name="miscellaneous" >
   <i type="int" name="IDIOT">     3</i>
   <i type="int" name="PHON_NSTRUCT">    -1</i>
   <i type="logical" name="LMUSIC"> F  </i>
   <v name="POMASS">     12.01100000      1.00000000    126.90400000     14.00100000    118.71000000</v>
   <v name="DARWINR">      0.00000000      0.00000000      0.00000000      0.00000000      0.00000000</v>
   <v name="DARWINV">      1.00000000      1.00000000      1.00000000      1.00000000      1.00000000</v>
   <i type="logical" name="LCORR"> T  </i>
  </separator>
  <i type="logical" name="GGA_COMPAT"> T  </i>
  <i type="logical" name="LBERRY"> F  </i>
  <i type="int" name="ICORELEVEL">     0</i>
  <i type="logical" name="LDAU"> F  </i>
  <i type="int" name="I_CONSTRAINED_M">     0</i>
  <separator name="electronic exchange-correlation" >
   <i type="string" name="GGA">MK</i>
   <i type="int" name="VOSKOWN">     0</i>
   <i type="logical" name="LHFCALC"> F  </i>
   <i type="string" name="PRECFOCK"></i>
   <i type="logical" name="LSYMGRAD"> F  </i>
   <i type="logical" name="LHFONE"> F  </i>
   <i type="logical" name="LRHFCALC"> F  </i>
   <i type="logical" name="LTHOMAS"> F  </i>
   <i type="logical" name="LMODELHF"> F  </i>
   <i type="logical" name="LFOCKACE"> F  </i>
   <i name="ENCUT4O">     -1.00000000</i>
   <i type="int" name="EXXOEP">     0</i>
   <i type="int" name="FOURORBIT">     0</i>
   <i name="AEXX">      0.00000000</i>
   <i name="HFALPHA">      0.00000000</i>
   <i name="MCALPHA">      0.00000000</i>
   <i name="ALDAX">      1.00000000</i>
   <i name="AGGAX">      1.00000000</i>
   <i name="ALDAC">      1.00000000</i>
   <i name="AGGAC">      0.00000000</i>
   <i type="int" name="NKREDX">     1</i>
   <i type="int" name="NKREDY">     1</i>
   <i type="int" name="NKREDZ">     1</i>
   <i type="logical" name="SHIFTRED"> F  </i>
   <i type="logical" name="ODDONLY"> F  </i>
   <i type="logical" name="EVENONLY"> F  </i>
   <i type="int" name="LMAXFOCK">     0</i>
   <i type="int" name="NMAXFOCKAE">     0</i>
   <i type="logical" name="LFOCKAEDFT"> F  </i>
   <i name="HFSCREEN">      0.00000000</i>
   <i name="HFSCREENC">      0.00000000</i>
   <i type="int" name="NBANDSGWLOW">     0</i>
  </separator>
  <separator name="vdW DFT" >
   <i type="logical" name="LUSE_VDW"> T  </i>
   <i name="Zab_VDW">     -0.84910000</i>
   <i name="PARAM1">      0.12340000</i>
   <i name="PARAM2">      1.00000000</i>
   <i name="PARAM3">      0.00000000</i>
  </separator>
  <separator name="model GW" >
   <i type="int" name="MODEL_GW">     0</i>
   <i name="MODEL_EPS0">     13.32303066</i>
   <i name="MODEL_ALPHA">      1.00000000</i>
  </separator>
  <separator name="linear response parameters" >
   <i type="logical" name="LEPSILON"> F  </i>
   <i type="logical" name="LRPA"> F  </i>
   <i type="logical" name="LNABLA"> F  </i>
   <i type="logical" name="LVEL"> F  </i>
   <i name="CSHIFT">      0.10000000</i>
   <i name="OMEGAMAX">     -1.00000000</i>
   <i name="DEG_THRESHOLD">      0.00200000</i>
   <i name="RTIME">     -0.10000000</i>
   <i name="WPLASMAI">      0.00000000</i>
   <v name="DFIELD">      0.00000000      0.00000000      0.00000000</v>
   <v name="WPLASMA">      0.00000000      0.00000000      0.00000000      0.00000000      0.00000000      0.00000000      0.00000000      0.00000000      0.00000000</v>
  </separator>
  <separator name="orbital magnetization" >
   <i type="logical" name="NUCIND"> F  </i>
   <v name="MAGPOS">      0.00000000      0.00000000      0.00000000</v>
   <i type="logical" name="LNICSALL"> T  </i>
   <i type="logical" name="ORBITALMAG"> F  </i>
   <i type="logical" name="LMAGBLOCH"> F  </i>
   <i type="logical" name="LCHIMAG"> F  </i>
   <i type="logical" name="LGAUGE"> T  </i>
   <i type="int" name="MAGATOM">     0</i>
   <v name="MAGDIPOL">      0.00000000      0.00000000      0.00000000</v>
   <v name="AVECCONST">      0.00000000      0.00000000      0.00000000</v>
  </separator>
  <separator name="response functions" >
   <i type="logical" name="LFINITE_TEMPERATURE"> F  </i>
   <i type="logical" name="LADDER"> F  </i>
   <i type="logical" name="LRPAFORCE"> F  </i>
   <i type="logical" name="LFXC"> F  </i>
   <i type="logical" name="LHARTREE"> T  </i>
   <i type="int" name="IBSE">     0</i>
   <v type="int" name="KPOINT">    -1     0     0     0</v>
   <i type="logical" name="LTCTC"> F  </i>
   <i type="logical" name="LTCTE"> F  </i>
   <i type="logical" name="LTETE"> F  </i>
   <i type="logical" name="LTRIPLET"> F  </i>
   <i type="logical" name="LFXCEPS"> F  </i>
   <i type="logical" name="LFXHEG"> F  </i>
   <i type="int" name="NATURALO">     2</i>
   <i type="logical" name="LHOLEGF"> F  </i>
   <i type="logical" name="L2ORDER"> F  </i>
   <i type="logical" name="LDMP1"> F  </i>
   <i type="logical" name="LMP2LT"> F  </i>
   <i type="logical" name="LSMP2LT"> F  </i>
   <i type="logical" name="LGWLF"> F  </i>
   <i name="ENCUTGW">     -2.00000000</i>
   <i name="ENCUTGWSOFT">     -2.00000000</i>
   <i name="ENCUTLF">     -1.00000000</i>
   <i type="logical" name="LESF_SPLINES"> F  </i>
   <i type="int" name="LMAXMP2">    -1</i>
   <i name="SCISSOR">      0.00000000</i>
   <i type="int" name="NOMEGA">     0</i>
   <i type="int" name="NOMEGAR">     0</i>
   <i type="int" name="NBANDSGW">    -1</i>
   <i type="int" name="NBANDSO">    -1</i>
   <i type="int" name="NBANDSV">    -1</i>
   <i type="int" name="NELMGW">     1</i>
   <i type="int" name="NELMHF">     1</i>
   <i type="int" name="DIM">     3</i>
   <i type="int" name="IESPILON">     4</i>
   <i type="int" name="ANTIRES">     0</i>
   <i name="OMEGAMAX">    -30.00000000</i>
   <i name="OMEGAMIN">    -30.00000000</i>
   <i name="OMEGATL">   -200.00000000</i>
   <i type="int" name="OMEGAGRID">     0</i>
   <i name="CSHIFT">     -0.10000000</i>
   <i type="logical" name="LSELFENERGY"> F  </i>
   <i type="logical" name="LSPECTRAL"> F  </i>
   <i type="logical" name="LSPECTRALGW"> F  </i>
   <i type="logical" name="LSINGLES"> F  </i>
   <i type="logical" name="LFERMIGW"> F  </i>
   <i type="logical" name="ODDONLYGW"> F  </i>
   <i type="logical" name="EVENONLYGW"> F  </i>
   <i type="int" name="NKREDLFX">     1</i>
   <i type="int" name="NKREDLFY">     1</i>
   <i type="int" name="NKREDLFZ">     1</i>
   <i type="int" name="MAXMEM">  2800</i>
   <i type="int" name="TELESCOPE">     0</i>
   <i type="int" name="NTAUPAR">    -1</i>
   <i type="int" name="NOMEGAPAR">    -1</i>
   <i name="DAMP_NEWTON">      0.80000001</i>
   <i name="LAMBDA">      1.00000000</i>
  </separator>
  <separator name="External order field" >
   <i name="OFIELD_KAPPA">      0.00000000</i>
   <v name="OFIELD_K">      0.00000000      0.00000000      0.00000000</v>
   <i name="OFIELD_Q6_NEAR">      0.00000000</i>
   <i name="OFIELD_Q6_FAR">      0.00000000</i>
   <i name="OFIELD_A">      0.00000000</i>
  </separator>
  <separator name="optional k-points parameters" >
   <i type="int" name="KPOINTS_OPT_MODE">     1</i>
   <i type="logical" name="LKPOINTS_OPT"> F  </i>
  </separator>
 </parameters>
 <atominfo>
  <atoms>      48 </atoms>
  <types>       5 </types>
  <array name="atoms" >
   <dimension dim="1">ion</dimension>
   <field type="string">element</field>
   <field type="int">atomtype</field>
   <set>
    <rc><c>C </c><c>   1</c></rc>
    <rc><c>C </c><c>   1</c></rc>
    <rc><c>C </c><c>   1</c></rc>
    <rc><c>C </c><c>   1</c></rc>
    <rc><c>H </c><c>   2</c></rc>
    <rc><c>H </c><c>   2</c></rc>
    <rc><c>H </c><c>   2</c></rc>
    <rc><c>H </c><c>   2</c></rc>
    <rc><c>H </c><c>   2</c></rc>
    <rc><c>H </c><c>   2</c></rc>
    <rc><c>H </c><c>   2</c></rc>
    <rc><c>H </c><c>   2</c></rc>
    <rc><c>H </c><c>   2</c></rc>
    <rc><c>H </c><c>   2</c></rc>
    <rc><c>H </c><c>   2</c></rc>
    <rc><c>H </c><c>   2</c></rc>
    <rc><c>H </c><c>   2</c></rc>
    <rc><c>H </c><c>   2</c></rc>
    <rc><c>H </c><c>   2</c></rc>
    <rc><c>H </c><c>   2</c></rc>
    <rc><c>H </c><c>   2</c></rc>
    <rc><c>H </c><c>   2</c></rc>
    <rc><c>H </c><c>   2</c></rc>
    <rc><c>H </c><c>   2</c></rc>
    <rc><c>I </c><c>   3</c></rc>
    <rc><c>I </c><c>   3</c></rc>
    <rc><c>I </c><c>   3</c></rc>
    <rc><c>I </c><c>   3</c></rc>
    <rc><c>I </c><c>   3</c></rc>
    <rc><c>I </c><c>   3</c></rc>
    <rc><c>I </c><c>   3</c></rc>
    <rc><c>I </c><c>   3</c></rc>
    <rc><c>I </c><c>   3</c></rc>
    <rc><c>I </c><c>   3</c></rc>
    <rc><c>I </c><c>   3</c></rc>
    <rc><c>I </c><c>   3</c></rc>
    <rc><c>N </c><c>   4</c></rc>
    <rc><c>N </c><c>   4</c></rc>
    <rc><c>N </c><c>   4</c></rc>
    <rc><c>N </c><c>   4</c></rc>
    <rc><c>N </c><c>   4</c></rc>
    <rc><c>N </c><c>   4</c></rc>
    <rc><c>N </c><c>   4</c></rc>
    <rc><c>N </c><c>   4</c></rc>
    <rc><c>Sn</c><c>   5</c></rc>
    <rc><c>Sn</c><c>   5</c></rc>
    <rc><c>Sn</c><c>   5</c></rc>
    <rc><c>Sn</c><c>   5</c></rc>
   </set>
  </array>
  <array name="atomtypes" >
   <dimension dim="1">type</dimension>
   <field type="int">atomspertype</field>
   <field type="string">element</field>
   <field>mass</field>
   <field>valence</field>
   <field type="string">pseudopotential</field>
   <set>
    <rc><c>   4</c><c>C </c><c>     12.01100000</c><c>      4.00000000</c><c>  PAW_PBE C 08Apr2002                   </c></rc>
    <rc><c>  20</c><c>H </c><c>      1.00000000</c><c>      1.00000000</c><c>  PAW_PBE H 15Jun2001                   </c></rc>
    <rc><c>  12</c><c>I </c><c>    126.90400000</c><c>      7.00000000</c><c>  PAW_PBE I 08Apr2002                   </c></rc>
    <rc><c>   8</c><c>N </c><c>     14.00100000</c><c>      5.00000000</c><c>  PAW_PBE N 08Apr2002                   </c></rc>
    <rc><c>   4</c><c>Sn</c><c>    118.71000000</c><c>      4.00000000</c><c>  PAW_PBE Sn 08Apr2002                  </c></rc>
   </set>
  </array>
 </atominfo>
 <structure name="initialpos" >
  <crystal>
   <varray name="basis" >
    <v>      14.63700000       0.00000000       0.00000000 </v>
    <v>       0.00000000       8.78600000       0.00000000 </v>
    <v>       0.00000000       0.00000000       8.28800000 </v>
   </varray>
   <i name="volume">   1065.84245242 </i>
   <varray name="rec_basis" >
    <v>       0.06832001       0.00000000       0.00000000 </v>
    <v>       0.00000000       0.11381744       0.00000000 </v>
    <v>       0.00000000       0.00000000       0.12065637 </v>
   </varray>
  </crystal>
  <varray name="positions" >
   <v>       0.65477722       0.53770112       0.28002646 </v>
   <v>       0.33374952       0.47221309       0.78616470 </v>
   <v>       0.85084249       0.04331646       0.77365034 </v>
   <v>       0.16656185       0.03498578       0.22223027 </v>
   <v>       0.65275110       0.42700353       0.06166800 </v>
   <v>       0.65058231       0.31166843       0.33839839 </v>
   <v>       0.64962976       0.43954288       0.49868082 </v>
   <v>       0.65930046       0.62334695       0.05529186 </v>
   <v>       0.65664694       0.65091585       0.33258408 </v>
   <v>       0.35768402       0.59770567       0.58168371 </v>
   <v>       0.43932273       0.61258122       0.84476448 </v>
   <v>       0.40272631       0.48637298       0.99457963 </v>
   <v>       0.27045299       0.46620469       0.57049427 </v>
   <v>       0.29060413       0.38189991       0.83313804 </v>
   <v>       0.85119257       0.81679041       0.83091664 </v>
   <v>       0.86071179       0.93430170       0.55500930 </v>
   <v>       0.85678887       0.13071201       0.54966964 </v>
   <v>       0.84697377       0.94404787       0.99166701 </v>
   <v>       0.84800973       0.15610095       0.82714557 </v>
   <v>       0.14151266       0.92739348       0.43791750 </v>
   <v>       0.17592632       0.80845098       0.16924049 </v>
   <v>       0.19512124       0.93410677       0.01064452 </v>
   <v>       0.14047368       0.12393591       0.44081200 </v>
   <v>       0.17217304       0.14751170       0.16904221 </v>
   <v>       0.58910000       0.23970000       0.79700000 </v>
   <v>       0.41090000       0.76030000       0.29700000 </v>
   <v>       0.91090000       0.73970000       0.29700000 </v>
   <v>       0.08910000       0.26030000       0.79700000 </v>
   <v>       0.33402000       0.99870000       0.75710000 </v>
   <v>       0.66598000       0.00130000       0.25710000 </v>
   <v>       0.16598000       0.49870000       0.25710000 </v>
   <v>       0.83402000       0.50130000       0.75710000 </v>
   <v>       0.41170000       0.24010000       0.20500000 </v>
   <v>       0.58830000       0.75990000       0.70500000 </v>
   <v>       0.08830000       0.74010000       0.70500000 </v>
   <v>       0.91170000       0.25990000       0.20500000 </v>
   <v>       0.65158406       0.42132262       0.37820605 </v>
   <v>       0.65579154       0.52749731       0.12228558 </v>
   <v>       0.39397988       0.53272368       0.88344822 </v>
   <v>       0.32150131       0.51318525       0.63583723 </v>
   <v>       0.85537912       0.03431811       0.61616263 </v>
   <v>       0.84929316       0.92619542       0.87116390 </v>
   <v>       0.17766296       0.91735432       0.12760058 </v>
   <v>       0.14883791       0.02706155       0.37694074 </v>
   <v>       0.50000000       0.00260000       0.00000000 </v>
   <v>       0.50000000       0.99740000       0.50000000 </v>
   <v>       0.00000000       0.50260000       0.50000000 </v>
   <v>       0.00000000       0.49740000       0.00000000 </v>
  </varray>
 </structure>
 <calculation>
  <scstep>
   <time name="total">27461.8127467.67</time>
   <energy>
    <i name="alphaZ">    108.40866624 </i>
    <i name="ewald">  -4421.88862620 </i>
    <i name="hartreedc">  -2217.83162755 </i>
    <i name="XCdc">   -376.50007637 </i>
    <i name="pawpsdc">   6161.33813817 </i>
    <i name="pawaedc">  -5338.05185836 </i>
    <i name="eentropy">     -0.00810500 </i>
    <i name="bandstr">    372.41462330 </i>
    <i name="atom">   7160.47832104 </i>
    <i name="e_fr_energy">   1448.35945529 </i>
    <i name="e_wo_entrp">   1448.36756029 </i>
    <i name="e_0_energy">   1448.36350779 </i>
   </energy>
  </scstep>
  <scstep>
   <time name="total">    8.89    8.90</time>
   <energy>
    <i name="e_fr_energy">     28.18421621 </i>
    <i name="e_wo_entrp">     28.18421621 </i>
    <i name="e_0_energy">     28.18421621 </i>
   </energy>
  </scstep>
  <scstep>
   <time name="total">    8.94    8.94</time>
   <energy>
    <i name="e_fr_energy">   -177.68613304 </i>
    <i name="e_wo_entrp">   -177.68613304 </i>
    <i name="e_0_energy">   -177.68613304 </i>
   </energy>
  </scstep>
  <scstep>
   <time name="total">    8.46    8.47</time>
   <energy>
    <i name="e_fr_energy">   -184.36765208 </i>
    <i name="e_wo_entrp">   -184.36765208 </i>
    <i name="e_0_energy">   -184.36765208 </i>
   </energy>
  </scstep>
  <scstep>
   <time name="total">   10.28   10.29</time>
   <energy>
    <i name="e_fr_energy">   -184.56657599 </i>
    <i name="e_wo_entrp">   -184.56657599 </i>
    <i name="e_0_energy">   -184.56657599 </i>
   </energy>
  </scstep>
  <scstep>
   <time name="total">   15.05   15.06</time>
   <energy>
    <i name="e_fr_energy">   -155.15856383 </i>
    <i name="e_wo_entrp">   -155.15856383 </i>
    <i name="e_0_energy">   -155.15856383 </i>
   </energy>
  </scstep>
  <scstep>
   <time name="total">   15.01   15.01</time>
   <energy>
    <i name="e_fr_energy">   -169.01690867 </i>
    <i name="e_wo_entrp">   -169.01690867 </i>
    <i name="e_0_energy">   -169.01690867 </i>
   </energy>
  </scstep>
  <scstep>
   <time name="total">   15.00   15.01</time>
   <energy>
    <i name="e_fr_energy">   -170.59081247 </i>
    <i name="e_wo_entrp">   -170.59081247 </i>
    <i name="e_0_energy">   -170.59081247 </i>
   </energy>
  </scstep>
  <scstep>
   <time name="total">   15.00   15.01</time>
   <energy>
    <i name="e_fr_energy">   -171.06896498 </i>
    <i name="e_wo_entrp">   -171.06896498 </i>
    <i name="e_0_energy">   -171.06896498 </i>
   </energy>
  </scstep>
  <scstep>
   <time name="total">   15.01   15.01</time>
   <energy>
    <i name="e_fr_energy">   -171.21410557 </i>
    <i name="e_wo_entrp">   -171.21410557 </i>
    <i name="e_0_energy">   -171.21410557 </i>
   </energy>
  </scstep>
  <scstep>
   <time name="total">   15.02   15.03</time>
   <energy>
    <i name="e_fr_energy">   -171.26244529 </i>
    <i name="e_wo_entrp">   -171.26244529 </i>
    <i name="e_0_energy">   -171.26244529 </i>
   </energy>
  </scstep>
  <scstep>
   <time name="total">   15.00   15.01</time>
   <energy>
    <i name="e_fr_energy">   -171.27410298 </i>
    <i name="e_wo_entrp">   -171.27410298 </i>
    <i name="e_0_energy">   -171.27410298 </i>
   </energy>
  </scstep>
  <scstep>
   <time name="total">   15.01   15.01</time>
   <energy>
    <i name="e_fr_energy">   -171.27699385 </i>
    <i name="e_wo_entrp">   -171.27699385 </i>
    <i name="e_0_energy">   -171.27699385 </i>
   </energy>
  </scstep>
  <scstep>
   <time name="total">   15.00   15.01</time>
   <energy>
    <i name="e_fr_energy">   -171.27766523 </i>
    <i name="e_wo_entrp">   -171.27766523 </i>
    <i name="e_0_energy">   -171.27766523 </i>
   </energy>
  </scstep>
  <scstep>
   <time name="total">   15.00   15.01</time>
   <energy>
    <i name="e_fr_energy">   -171.27781318 </i>
    <i name="e_wo_entrp">   -171.27781318 </i>
    <i name="e_0_energy">   -171.27781318 </i>
   </energy>
  </scstep>
  <scstep>
   <time name="total">   15.00   15.02</time>
   <energy>
    <i name="e_fr_energy">   -171.27785022 </i>
    <i name="e_wo_entrp">   -171.27785022 </i>
    <i name="e_0_energy">   -171.27785022 </i>
   </energy>
  </scstep>
  <scstep>
   <time name="total">   15.01   15.02</time>
   <energy>
    <i name="e_fr_energy">   -171.27785938 </i>
    <i name="e_wo_entrp">   -171.27785938 </i>
    <i name="e_0_energy">   -171.27785938 </i>
   </energy>
  </scstep>
  <scstep>
   <time name="total">   16.30   16.30</time>
   <energy>
    <i name="alphaZ">    108.40866624 </i>
    <i name="ewald">  -4421.88862620 </i>
    <i name="hartreedc">  -2444.17970489 </i>
    <i name="XCdc">   -359.49356908 </i>
    <i name="pawpsdc">  11777.35015429 </i>
    <i name="pawaedc"> -10958.70359721 </i>
    <i name="eentropy">     -0.00000000 </i>
    <i name="bandstr">  -1033.24950593 </i>
    <i name="atom">   7160.47832104 </i>
    <i name="e_fr_energy">   -171.27786174 </i>
    <i name="e_wo_entrp">   -171.27786174 </i>
    <i name="e_0_energy">   -171.27786174 </i>
   </energy>
  </scstep>
  <structure>
   <crystal>
    <varray name="basis" >
     <v>      14.63700000       0.00000000       0.00000000 </v>
     <v>       0.00000000       8.78600000       0.00000000 </v>
     <v>       0.00000000       0.00000000       8.28800000 </v>
    </varray>
    <i name="volume">   1065.84245242 </i>
    <varray name="rec_basis" >
     <v>       0.06832001       0.00000000       0.00000000 </v>
     <v>       0.00000000       0.11381744       0.00000000 </v>
     <v>       0.00000000       0.00000000       0.12065637 </v>
    </varray>
   </crystal>
   <varray name="positions" >
    <v>       0.65477722       0.53770112       0.28002646 </v>
    <v>       0.33374952       0.47221309       0.78616470 </v>
    <v>       0.85084249       0.04331646       0.77365034 </v>
    <v>       0.16656185       0.03498578       0.22223027 </v>
    <v>       0.65275110       0.42700353       0.06166800 </v>
    <v>       0.65058231       0.31166843       0.33839839 </v>
    <v>       0.64962976       0.43954288       0.49868082 </v>
    <v>       0.65930046       0.62334695       0.05529186 </v>
    <v>       0.65664694       0.65091585       0.33258408 </v>
    <v>       0.35768402       0.59770567       0.58168371 </v>
    <v>       0.43932273       0.61258122       0.84476448 </v>
    <v>       0.40272631       0.48637298       0.99457963 </v>
    <v>       0.27045299       0.46620469       0.57049427 </v>
    <v>       0.29060413       0.38189991       0.83313804 </v>
    <v>       0.85119257       0.81679041       0.83091664 </v>
    <v>       0.86071179       0.93430170       0.55500930 </v>
    <v>       0.85678887       0.13071201       0.54966964 </v>
    <v>       0.84697377       0.94404787       0.99166701 </v>
    <v>       0.84800973       0.15610095       0.82714557 </v>
    <v>       0.14151266       0.92739348       0.43791750 </v>
    <v>       0.17592632       0.80845098       0.16924049 </v>
    <v>       0.19512124       0.93410677       0.01064452 </v>
    <v>       0.14047368       0.12393591       0.44081200 </v>
    <v>       0.17217304       0.14751170       0.16904221 </v>
    <v>       0.58910000       0.23970000       0.79700000 </v>
    <v>       0.41090000       0.76030000       0.29700000 </v>
    <v>       0.91090000       0.73970000       0.29700000 </v>
    <v>       0.08910000       0.26030000       0.79700000 </v>
    <v>       0.33402000       0.99870000       0.75710000 </v>
    <v>       0.66598000       0.00130000       0.25710000 </v>
    <v>       0.16598000       0.49870000       0.25710000 </v>
    <v>       0.83402000       0.50130000       0.75710000 </v>
    <v>       0.41170000       0.24010000       0.20500000 </v>
    <v>       0.58830000       0.75990000       0.70500000 </v>
    <v>       0.08830000       0.74010000       0.70500000 </v>
    <v>       0.91170000       0.25990000       0.20500000 </v>
    <v>       0.65158406       0.42132262       0.37820605 </v>
    <v>       0.65579154       0.52749731       0.12228558 </v>
    <v>       0.39397988       0.53272368       0.88344822 </v>
    <v>       0.32150131       0.51318525       0.63583723 </v>
    <v>       0.85537912       0.03431811       0.61616263 </v>
    <v>       0.84929316       0.92619542       0.87116390 </v>
    <v>       0.17766296       0.91735432       0.12760058 </v>
    <v>       0.14883791       0.02706155       0.37694074 </v>
    <v>       0.50000000       0.00260000       0.00000000 </v>
    <v>       0.50000000       0.99740000       0.50000000 </v>
    <v>       0.00000000       0.50260000       0.50000000 </v>
    <v>       0.00000000       0.49740000       0.00000000 </v>
   </varray>
  </structure>
  <varray name="forces" >
   <v>       0.00472709       0.05914889       0.01978365 </v>
   <v>      -0.03728571      -0.04286818       0.02243054 </v>
   <v>      -0.01036045       0.05418533       0.03058217 </v>
   <v>       0.00135771       0.05518095      -0.02643666 </v>
   <v>      -0.02216249      -0.34450916      -0.22261796 </v>
   <v>      -0.00138935      -0.40116418      -0.11225725 </v>
   <v>      -0.01368570       0.04216047       0.41048418 </v>
   <v>       0.01802288       0.33554995      -0.24721503 </v>
   <v>       0.00985264       0.29618896       0.12487735 </v>
   <v>       0.20263525       0.29354860      -0.20260614 </v>
   <v>       0.28846622       0.28691687      -0.11051025 </v>
   <v>       0.06533902      -0.15605806       0.37949025 </v>
   <v>      -0.29910793      -0.16315474      -0.24735865 </v>
   <v>      -0.18991636      -0.23255352       0.11001192 </v>
   <v>       0.00825380      -0.39255613      -0.10828431 </v>
   <v>       0.03466867      -0.34304869      -0.22054598 </v>
   <v>       0.00868199       0.33620704      -0.24691158 </v>
   <v>      -0.00981233       0.03967207       0.40745776 </v>
   <v>      -0.01750342       0.28945553       0.12127959 </v>
   <v>      -0.04869313      -0.34604748       0.22747967 </v>
   <v>      -0.00956686      -0.40731683       0.12091204 </v>
   <v>       0.10719033       0.03804360      -0.40324456 </v>
   <v>      -0.05455787       0.34549754       0.24198355 </v>
   <v>       0.02347338       0.29931547      -0.13182350 </v>
   <v>       0.17010730       0.13595969      -0.08244230 </v>
   <v>      -0.02589153      -0.12482151      -0.06851549 </v>
   <v>      -0.09433565       0.14941342      -0.09395953 </v>
   <v>       0.10588335      -0.17247937      -0.13502879 </v>
   <v>      -0.03840092      -0.02330005      -0.00744167 </v>
   <v>       0.16476566       0.02172563      -0.01725024 </v>
   <v>       0.15738043      -0.01215498       0.00670889 </v>
   <v>      -0.10583742       0.04285581      -0.02443428 </v>
   <v>      -0.06445985       0.10768015       0.12331084 </v>
   <v>       0.16698204      -0.26811774       0.12807124 </v>
   <v>       0.03969093       0.12821473       0.05948210 </v>
   <v>      -0.10075853      -0.16051012       0.07519823 </v>
   <v>       0.00286993       0.01563267      -0.00986494 </v>
   <v>       0.00864385       0.00507441       0.02133326 </v>
   <v>      -0.04564708       0.03668217       0.00610363 </v>
   <v>       0.01467145      -0.02376878       0.01537905 </v>
   <v>      -0.02526800       0.00469783       0.02162253 </v>
   <v>      -0.00157731       0.01120949      -0.00520765 </v>
   <v>      -0.03352008       0.01340366      -0.00054066 </v>
   <v>       0.01463819      -0.00228213      -0.01690996 </v>
   <v>      -0.13168369      -0.09884701      -0.00187938 </v>
   <v>      -0.17065251       0.24210116       0.00633881 </v>
   <v>      -0.04100431      -0.13083308       0.04161398 </v>
   <v>      -0.02522366       0.16066964       0.02135157 </v>
  </varray>
  <varray name="stress" >
   <v>      -1.53319122       1.04598699       0.27601437 </v>
   <v>       1.04598720       4.11006004      -0.84717574 </v>
   <v>       0.27601406      -0.84717437       2.00683215 </v>
  </varray>
  <energy>
   <i name="e_fr_energy">   -171.27786174 </i>
   <i name="e_wo_entrp">   -171.27786174 </i>
   <i name="e_0_energy">   -171.27786174 </i>
  </energy>
  <time name="totalsc">27719.4727725.51</time>
 </calculation>
 <calculation>
  <scstep>
   <time name="total">   15.05   15.05</time>
   <energy>
    <i name="alphaZ">    108.07758662 </i>
    <i name="ewald">  -4452.45257810 </i>
    <i name="hartreedc">  -2434.51880117 </i>
    <i name="XCdc">   -360.19191645 </i>
    <i name="pawpsdc">  11854.48691281 </i>
    <i name="pawaedc"> -11035.68201036 </i>
    <i name="eentropy">     -0.00000000 </i>
    <i name="bandstr">  -1010.99940126 </i>
    <i name="atom">   7160.47832104 </i>
    <i name="e_fr_energy">   -170.80188687 </i>
    <i name="e_wo_entrp">   -170.80188687 </i>
    <i name="e_0_energy">   -170.80188687 </i>
   </energy>
  </scstep>
  <scstep>
   <time name="total">   15.01   15.02</time>
   <energy>
    <i name="e_fr_energy">   -171.14621530 </i>
    <i name="e_wo_entrp">   -171.14621530 </i>
    <i name="e_0_energy">   -171.14621530 </i>
   </energy>
  </scstep>
  <scstep>
   <time name="total">   15.00   15.01</time>
   <energy>
    <i name="e_fr_energy">   -171.25958292 </i>
    <i name="e_wo_entrp">   -171.25958292 </i>
    <i name="e_0_energy">   -171.25958292 </i>
   </energy>
  </scstep>
  <scstep>
   <time name="total">   15.03   15.03</time>
   <energy>
    <i name="e_fr_energy">   -171.27800607 </i>
    <i name="e_wo_entrp">   -171.27800607 </i>
    <i name="e_0_energy">   -171.27800607 </i>
   </energy>
  </scstep>
  <scstep>
   <time name="total">   15.01   15.02</time>
   <energy>
    <i name="e_fr_energy">   -171.28194535 </i>
    <i name="e_wo_entrp">   -171.28194535 </i>
    <i name="e_0_energy">   -171.28194535 </i>
   </energy>
  </scstep>
  <scstep>
   <time name="total">   15.00   15.01</time>
   <energy>
    <i name="e_fr_energy">   -171.28293869 </i>
    <i name="e_wo_entrp">   -171.28293869 </i>
    <i name="e_0_energy">   -171.28293869 </i>
   </energy>
  </scstep>
  <scstep>
   <time name="total">   15.03   15.04</time>
   <energy>
    <i name="e_fr_energy">   -171.28325607 </i>
    <i name="e_wo_entrp">   -171.28325607 </i>
    <i name="e_0_energy">   -171.28325607 </i>
   </energy>
  </scstep>
  <scstep>
   <time name="total">   15.01   15.02</time>
   <energy>
    <i name="e_fr_energy">   -171.28335487 </i>
    <i name="e_wo_entrp">   -171.28335487 </i>
    <i name="e_0_energy">   -171.28335487 </i>
   </energy>
  </scstep>
  <scstep>
   <time name="total">   15.02   15.03</time>
   <energy>
    <i name="e_fr_energy">   -171.28338046 </i>
    <i name="e_wo_entrp">   -171.28338046 </i>
    <i name="e_0_energy">   -171.28338046 </i>
   </energy>
  </scstep>
  <scstep>
   <time name="total">   15.01   15.02</time>
   <energy>
    <i name="e_fr_energy">   -171.28338672 </i>
    <i name="e_wo_entrp">   -171.28338672 </i>
    <i name="e_0_energy">   -171.28338672 </i>
   </energy>
  </scstep>
  <scstep>
   <time name="total">   16.29   16.30</time>
   <energy>
    <i name="alphaZ">    108.07758662 </i>
    <i name="ewald">  -4452.45257810 </i>
    <i name="hartreedc">  -2420.35213869 </i>
    <i name="XCdc">   -361.02310447 </i>
    <i name="pawpsdc">  11566.14456974 </i>
    <i name="pawaedc"> -10747.30372899 </i>
    <i name="eentropy">     -0.00000000 </i>
    <i name="bandstr">  -1024.85231553 </i>
    <i name="atom">   7160.47832104 </i>
    <i name="e_fr_energy">   -171.28338838 </i>
    <i name="e_wo_entrp">   -171.28338838 </i>
    <i name="e_0_energy">   -171.28338838 </i>
   </energy>
  </scstep>
  <structure>
   <crystal>
    <varray name="basis" >
     <v>      14.62199553       0.01023648       0.00270120 </v>
     <v>       0.00614455       8.81014414      -0.00497665 </v>
     <v>       0.00152951      -0.00469456       8.29912073 </v>
    </varray>
    <i name="volume">   1069.10750232 </i>
    <varray name="rec_basis" >
     <v>       0.06839015      -0.00004771      -0.00001263 </v>
     <v>      -0.00007947       0.11350561       0.00006422 </v>
     <v>      -0.00002231       0.00006808       0.12049474 </v>
    </varray>
   </crystal>
   <varray name="positions" >
    <v>       0.65479280       0.53802590       0.28014162 </v>
    <v>       0.33362663       0.47197771       0.78629526 </v>
    <v>       0.85080834       0.04361398       0.77382835 </v>
    <v>       0.16656632       0.03528877       0.22207639 </v>
    <v>       0.65267806       0.42511188       0.06037219 </v>
    <v>       0.65057773       0.30946569       0.33774496 </v>
    <v>       0.64958465       0.43977437       0.50107016 </v>
    <v>       0.65935986       0.62518940       0.05385287 </v>
    <v>       0.65667942       0.65254218       0.33331096 </v>
    <v>       0.35835189       0.59931750       0.58050438 </v>
    <v>       0.44027350       0.61415664       0.84412122 </v>
    <v>       0.40294166       0.48551609       0.99678856 </v>
    <v>       0.26946715       0.46530883       0.56905445 </v>
    <v>       0.28997818       0.38062299       0.83377839 </v>
    <v>       0.85121978       0.81463494       0.83028634 </v>
    <v>       0.86082606       0.93241807       0.55372555 </v>
    <v>       0.85681748       0.13255807       0.54823242 </v>
    <v>       0.84694143       0.94426571       0.99403874 </v>
    <v>       0.84795204       0.15769031       0.82785151 </v>
    <v>       0.14135217       0.92549338       0.43924161 </v>
    <v>       0.17589479       0.80621446       0.16994429 </v>
    <v>       0.19547454       0.93431566       0.00829732 </v>
    <v>       0.14029386       0.12583299       0.44222054 </v>
    <v>       0.17225041       0.14915519       0.16827489 </v>
    <v>       0.58966066       0.24044653       0.79652012 </v>
    <v>       0.41081466       0.75961462       0.29660119 </v>
    <v>       0.91058908       0.74052041       0.29645308 </v>
    <v>       0.08944899       0.25935294       0.79621403 </v>
    <v>       0.33389343       0.99857206       0.75705668 </v>
    <v>       0.66652306       0.00141929       0.25699959 </v>
    <v>       0.16649872       0.49863326       0.25713905 </v>
    <v>       0.83367117       0.50153532       0.75695777 </v>
    <v>       0.41148754       0.24069126       0.20571777 </v>
    <v>       0.58885036       0.75842780       0.70574547 </v>
    <v>       0.08843082       0.74080401       0.70534623 </v>
    <v>       0.91136791       0.25901866       0.20543771 </v>
    <v>       0.65159352       0.42140845       0.37814862 </v>
    <v>       0.65582003       0.52752518       0.12240976 </v>
    <v>       0.39382943       0.53292510       0.88348375 </v>
    <v>       0.32154967       0.51305474       0.63592675 </v>
    <v>       0.85529584       0.03434391       0.61628849 </v>
    <v>       0.84928796       0.92625697       0.87113359 </v>
    <v>       0.17755248       0.91742792       0.12759743 </v>
    <v>       0.14888616       0.02704902       0.37684231 </v>
    <v>       0.49956598       0.00205725      -0.00001094 </v>
    <v>       0.49943754       0.99872934       0.50003690 </v>
    <v>      -0.00013515       0.50188161       0.50024223 </v>
    <v>      -0.00008314       0.49828221       0.00012428 </v>
   </varray>
  </structure>
  <varray name="forces" >
   <v>       0.00760702       0.20603268       0.20142853 </v>
   <v>      -0.17836154      -0.20865017       0.09101328 </v>
   <v>      -0.02089248       0.20019350       0.16946906 </v>
   <v>       0.02207042       0.27342181      -0.14674024 </v>
   <v>       0.00999312       0.41298693       0.20345123 </v>
   <v>       0.01734868       0.43156233       0.14124557 </v>
   <v>       0.00681582      -0.08989427      -0.45397789 </v>
   <v>      -0.03372621      -0.47091609       0.27272302 </v>
   <v>      -0.00302185      -0.15174925      -0.05566757 </v>
   <v>      -0.25192862      -0.35536517       0.20078974 </v>
   <v>      -0.26216623      -0.30799160       0.13647121 </v>
   <v>      -0.03660113       0.19816608      -0.42475349 </v>
   <v>       0.34621428       0.20225002       0.21541048 </v>
   <v>       0.08452564       0.11743306      -0.07093045 </v>
   <v>      -0.01751362       0.42779197       0.14478067 </v>
   <v>      -0.02638074       0.40061988       0.20194017 </v>
   <v>      -0.00992158      -0.47245539       0.26776485 </v>
   <v>       0.01972190      -0.08932882      -0.44544350 </v>
   <v>      -0.00059504      -0.14703715      -0.05120651 </v>
   <v>       0.04341203       0.43330181      -0.22709956 </v>
   <v>       0.01306390       0.46510003      -0.17317532 </v>
   <v>      -0.10859355      -0.10124324       0.43334142 </v>
   <v>       0.05372140      -0.45701378      -0.23322151 </v>
   <v>      -0.01709361      -0.18072190       0.08087590 </v>
   <v>       0.12526729       0.06589797      -0.04535518 </v>
   <v>       0.00387960      -0.06425773      -0.03861875 </v>
   <v>      -0.06060508       0.09008925      -0.06173205 </v>
   <v>       0.06869127      -0.10412138      -0.11451354 </v>
   <v>      -0.03309168      -0.02113529      -0.00458047 </v>
   <v>       0.11093677       0.03109683      -0.00747772 </v>
   <v>       0.12418457      -0.00301671       0.00310611 </v>
   <v>      -0.07205688       0.04993498      -0.01455489 </v>
   <v>      -0.04322985       0.07165442       0.10710044 </v>
   <v>       0.10202525      -0.17702165       0.09285968 </v>
   <v>       0.00984767       0.07426799       0.03483833 </v>
   <v>      -0.05902590      -0.08721044       0.04937076 </v>
   <v>      -0.02391266      -0.43628532       0.45930299 </v>
   <v>       0.02062187       0.09267442      -0.79822320 </v>
   <v>       0.50862790       0.18215587       0.52482840 </v>
   <v>      -0.19514938       0.16972864      -0.71058096 </v>
   <v>       0.04964882       0.10201354      -0.76550561 </v>
   <v>      -0.00705617      -0.43301996       0.46396588 </v>
   <v>       0.14845605      -0.54599828      -0.49099821 </v>
   <v>      -0.16111787       0.09181679       0.78315523 </v>
   <v>      -0.08794333      -0.03709042      -0.01171073 </v>
   <v>      -0.12146947       0.13882679       0.01307212 </v>
   <v>      -0.03799215      -0.06209178       0.03042825 </v>
   <v>      -0.02723465       0.07459819       0.02333401 </v>
  </varray>
  <varray name="stress" >
   <v>      -4.63313619      -1.08772317       1.06696029 </v>
   <v>      -1.08772294     -13.19820162       0.35177765 </v>
   <v>       1.06696040       0.35177858     -10.15809486 </v>
  </varray>
  <energy>
   <i name="e_fr_energy">   -171.28338838 </i>
   <i name="e_wo_entrp">   -171.28338838 </i>
   <i name="e_0_energy">   -171.28338838 </i>
  </energy>
  <time name="totalsc">  191.16  191.25</time>
 </calculation>
 <calculation>
  <scstep>
   <time name="total">   15.05   15.05</time>
   <energy>
    <i name="alphaZ">    108.23980180 </i>
    <i name="ewald">  -4437.66777578 </i>
    <i name="hartreedc">  -2425.05582504 </i>
    <i name="XCdc">   -360.68411566 </i>
    <i name="pawpsdc">  11552.06137379 </i>
    <i name="pawaedc"> -10733.29579684 </i>
    <i name="eentropy">     -0.00000000 </i>
    <i name="bandstr">  -1035.28774476 </i>
    <i name="atom">   7160.47832104 </i>
    <i name="e_fr_energy">   -171.21176144 </i>
    <i name="e_wo_entrp">   -171.21176144 </i>
    <i name="e_0_energy">   -171.21176144 </i>
   </energy>
  </scstep>
  <scstep>
   <time name="total">   15.02   15.02</time>
   <energy>
    <i name="e_fr_energy">   -171.29432867 </i>
    <i name="e_wo_entrp">   -171.29432867 </i>
    <i name="e_0_energy">   -171.29432867 </i>
   </energy>
  </scstep>
  <scstep>
   <time name="total">   14.99   15.00</time>
   <energy>
    <i name="e_fr_energy">   -171.32155212 </i>
    <i name="e_wo_entrp">   -171.32155212 </i>
    <i name="e_0_energy">   -171.32155212 </i>
   </energy>
  </scstep>
  <scstep>
   <time name="total">   15.01   15.01</time>
   <energy>
    <i name="e_fr_energy">   -171.32598585 </i>
    <i name="e_wo_entrp">   -171.32598585 </i>
    <i name="e_0_energy">   -171.32598585 </i>
   </energy>
  </scstep>
  <scstep>
   <time name="total">   15.00   15.01</time>
   <energy>
    <i name="e_fr_energy">   -171.32693269 </i>
    <i name="e_wo_entrp">   -171.32693269 </i>
    <i name="e_0_energy">   -171.32693269 </i>
   </energy>
  </scstep>
  <scstep>
   <time name="total">   15.00   15.01</time>
   <energy>
    <i name="e_fr_energy">   -171.32717268 </i>
    <i name="e_wo_entrp">   -171.32717268 </i>
    <i name="e_0_energy">   -171.32717268 </i>
   </energy>
  </scstep>
  <scstep>
   <time name="total">   14.99   15.00</time>
   <energy>
    <i name="e_fr_energy">   -171.32724992 </i>
    <i name="e_wo_entrp">   -171.32724992 </i>
    <i name="e_0_energy">   -171.32724992 </i>
   </energy>
  </scstep>
  <scstep>
   <time name="total">   15.00   15.01</time>
   <energy>
    <i name="e_fr_energy">   -171.32727412 </i>
    <i name="e_wo_entrp">   -171.32727412 </i>
    <i name="e_0_energy">   -171.32727412 </i>
   </energy>
  </scstep>
  <scstep>
   <time name="total">   14.98   14.99</time>
   <energy>
    <i name="e_fr_energy">   -171.32728016 </i>
    <i name="e_wo_entrp">   -171.32728016 </i>
    <i name="e_0_energy">   -171.32728016 </i>
   </energy>
  </scstep>
  <scstep>
   <time name="total">   16.28   16.29</time>
   <energy>
    <i name="alphaZ">    108.23980180 </i>
    <i name="ewald">  -4437.66777578 </i>
    <i name="hartreedc">  -2431.91710916 </i>
    <i name="XCdc">   -360.27904757 </i>
    <i name="pawpsdc">  11668.54104195 </i>
    <i name="pawaedc"> -10849.79392154 </i>
    <i name="eentropy">     -0.00000000 </i>
    <i name="bandstr">  -1028.92859232 </i>
    <i name="atom">   7160.47832104 </i>
    <i name="e_fr_energy">   -171.32728157 </i>
    <i name="e_wo_entrp">   -171.32728157 </i>
    <i name="e_0_energy">   -171.32728157 </i>
   </energy>
  </scstep>
  <structure>
   <crystal>
    <varray name="basis" >
     <v>      14.62936022       0.00521208       0.00137536 </v>
     <v>       0.00312860       8.79829339      -0.00253394 </v>
     <v>       0.00077878      -0.00239031       8.29366230 </v>
    </varray>
    <i name="volume">   1067.50526852 </i>
    <varray name="rec_basis" >
     <v>       0.06835570      -0.00002431      -0.00000643 </v>
     <v>      -0.00004050       0.11365843       0.00003276 </v>
     <v>      -0.00001135       0.00003473       0.12057401 </v>
    </varray>
   </crystal>
   <varray name="positions" >
    <v>       0.65478522       0.53786690       0.28008508 </v>
    <v>       0.33368697       0.47209282       0.78623131 </v>
    <v>       0.85082519       0.04346828       0.77374100 </v>
    <v>       0.16656418       0.03514050       0.22215173 </v>
    <v>       0.65271349       0.42603812       0.06100790 </v>
    <v>       0.65057950       0.31054407       0.33806590 </v>
    <v>       0.64960698       0.43966041       0.49989888 </v>
    <v>       0.65933098       0.62428795       0.05455770 </v>
    <v>       0.65666383       0.65174594       0.33295419 </v>
    <v>       0.35802401       0.59852922       0.58108209 </v>
    <v>       0.43980664       0.61338620       0.84443622 </v>
    <v>       0.40283579       0.48593508       0.99570608 </v>
    <v>       0.26995127       0.46574715       0.56976032 </v>
    <v>       0.29028550       0.38124751       0.83346478 </v>
    <v>       0.85120593       0.81569020       0.83059594 </v>
    <v>       0.86076946       0.93334049       0.55435538 </v>
    <v>       0.85680373       0.13165484       0.54893637 </v>
    <v>       0.84695749       0.94415844       0.99287611 </v>
    <v>       0.84798074       0.15691212       0.82750500 </v>
    <v>       0.14143070       0.92642302       0.43859309 </v>
    <v>       0.17590986       0.80730901       0.16959996 </v>
    <v>       0.19530087       0.93421423       0.00944786 </v>
    <v>       0.14038268       0.12490392       0.44152952 </v>
    <v>       0.17221269       0.14835096       0.16865054 </v>
    <v>       0.58938532       0.24008156       0.79675522 </v>
    <v>       0.41085643       0.75995016       0.29679686 </v>
    <v>       0.91074198       0.74011879       0.29672088 </v>
    <v>       0.08927728       0.25981692       0.79659963 </v>
    <v>       0.33395559       0.99863463       0.75707793 </v>
    <v>       0.66625625       0.00136124       0.25704886 </v>
    <v>       0.16624384       0.49866621       0.25712001 </v>
    <v>       0.83384260       0.50141997       0.75702736 </v>
    <v>       0.41159209       0.24040153       0.20536573 </v>
    <v>       0.58857968       0.75914855       0.70538058 </v>
    <v>       0.08836671       0.74045939       0.70517633 </v>
    <v>       0.91153092       0.25944976       0.20522336 </v>
    <v>       0.65158889       0.42136646       0.37817675 </v>
    <v>       0.65580604       0.52751152       0.12234889 </v>
    <v>       0.39390340       0.53282641       0.88346625 </v>
    <v>       0.32152589       0.51311863       0.63588291 </v>
    <v>       0.85533677       0.03433120       0.61622677 </v>
    <v>       0.84929053       0.92622684       0.87114843 </v>
    <v>       0.17760678       0.91739183       0.12759893 </v>
    <v>       0.14886245       0.02705521       0.37689057 </v>
    <v>       0.49977912       0.00232267      -0.00000549 </v>
    <v>       0.49971417       0.99807831       0.50001833 </v>
    <v>      -0.00006888       0.50223312       0.50012368 </v>
    <v>      -0.00004210       0.49785030       0.00006309 </v>
   </varray>
  </structure>
  <varray name="forces" >
   <v>       0.00632285       0.13810087       0.11493332 </v>
   <v>      -0.11220061      -0.13094148       0.05881819 </v>
   <v>      -0.01594955       0.13252483       0.10363608 </v>
   <v>       0.01231949       0.17185144      -0.09022576 </v>
   <v>      -0.00520986       0.05598767       0.00245578 </v>
   <v>       0.00824464       0.03916140       0.02274040 </v>
   <v>      -0.00277722      -0.02806134      -0.04476167 </v>
   <v>      -0.00929760      -0.09101153       0.02737921 </v>
   <v>       0.00321098       0.06317817       0.03084495 </v>
   <v>      -0.03833410      -0.04924190       0.01041310 </v>
   <v>      -0.00260065      -0.02756696       0.02074440 </v>
   <v>       0.01207688       0.03112959      -0.04570711 </v>
   <v>       0.04098070       0.02929734      -0.00399730 </v>
   <v>      -0.04693541      -0.05057334       0.01588328 </v>
   <v>      -0.00544063       0.04048695       0.02620112 </v>
   <v>       0.00237475       0.05000933       0.00264630 </v>
   <v>      -0.00080323      -0.09162281       0.02495696 </v>
   <v>       0.00587721      -0.02882179      -0.04137493 </v>
   <v>      -0.00859726       0.06261601       0.03140377 </v>
   <v>      -0.00003834       0.06687453      -0.01296882 </v>
   <v>       0.00264484       0.05486761      -0.03561189 </v>
   <v>      -0.00650167      -0.03573141       0.03797614 </v>
   <v>       0.00272158      -0.07820881      -0.00881517 </v>
   <v>       0.00236669       0.04907598      -0.02087290 </v>
   <v>       0.14655686       0.09930616      -0.06347422 </v>
   <v>      -0.01019295      -0.09312758      -0.05332422 </v>
   <v>      -0.07652137       0.11838871      -0.07753414 </v>
   <v>       0.08632142      -0.13670637      -0.12433643 </v>
   <v>      -0.03516232      -0.02209166      -0.00615288 </v>
   <v>       0.13675892       0.02638836      -0.01228979 </v>
   <v>       0.13979944      -0.00778046       0.00489451 </v>
   <v>      -0.08836035       0.04627921      -0.01933222 </v>
   <v>      -0.05331911       0.08873283       0.11543323 </v>
   <v>       0.13283325      -0.21989112       0.10931417 </v>
   <v>       0.02385323       0.09975235       0.04703983 </v>
   <v>      -0.07883370      -0.12236751       0.06182093 </v>
   <v>      -0.01139931      -0.22747999       0.23813784 </v>
   <v>       0.01522678       0.05108638      -0.41424966 </v>
   <v>       0.24899539       0.11590055       0.28062059 </v>
   <v>      -0.09433793       0.08053162      -0.36943931 </v>
   <v>       0.01422073       0.05621938      -0.39716185 </v>
   <v>      -0.00437980      -0.22719783       0.24254985 </v>
   <v>       0.06227568      -0.28668388      -0.25890751 </v>
   <v>      -0.07890746       0.04511282       0.40835439 </v>
   <v>      -0.10911837      -0.06686282      -0.00724793 </v>
   <v>      -0.14512285       0.18826812       0.01047416 </v>
   <v>      -0.03947610      -0.09524536       0.03576575 </v>
   <v>      -0.02616456       0.11608771       0.02234745 </v>
  </varray>
  <varray name="stress" >
   <v>      -3.14621409      -0.06300587       0.69025949 </v>
   <v>      -0.06300595      -4.91695183      -0.22447256 </v>
   <v>       0.69025890      -0.22447157      -4.32272586 </v>
  </varray>
  <energy>
   <i name="e_fr_energy">   -171.32728157 </i>
   <i name="e_wo_entrp">   -171.32728157 </i>
   <i name="e_0_energy">   -171.32728157 </i>
  </energy>
  <time name="totalsc">  175.96  176.06</time>
 </calculation>
 <calculation>
  <scstep>
   <time name="total">   15.03   15.03</time>
   <energy>
    <i name="alphaZ">    108.88242310 </i>
    <i name="ewald">  -4485.04590620 </i>
    <i name="hartreedc">  -2423.15370713 </i>
    <i name="XCdc">   -360.09594741 </i>
    <i name="pawpsdc">  11799.64421460 </i>
    <i name="pawaedc"> -10980.95728108 </i>
    <i name="eentropy">     -0.00000000 </i>
    <i name="bandstr">   -989.49390927 </i>
    <i name="atom">   7160.47832104 </i>
    <i name="e_fr_energy">   -169.74179235 </i>
    <i name="e_wo_entrp">   -169.74179235 </i>
    <i name="e_0_energy">   -169.74179235 </i>
   </energy>
  </scstep>
  <scstep>
   <time name="total">   14.99   15.00</time>
   <energy>
    <i name="e_fr_energy">   -170.87610144 </i>
    <i name="e_wo_entrp">   -170.87610144 </i>
    <i name="e_0_energy">   -170.87610144 </i>
   </energy>
  </scstep>
  <scstep>
   <time name="total">   15.01   15.02</time>
   <energy>
    <i name="e_fr_energy">   -171.25771795 </i>
    <i name="e_wo_entrp">   -171.25771795 </i>
    <i name="e_0_energy">   -171.25771795 </i>
   </energy>
  </scstep>
  <scstep>
   <time name="total">   15.00   15.01</time>
   <energy>
    <i name="e_fr_energy">   -171.31822926 </i>
    <i name="e_wo_entrp">   -171.31822926 </i>
    <i name="e_0_energy">   -171.31822926 </i>
   </energy>
  </scstep>
  <scstep>
   <time name="total">   14.99   15.00</time>
   <energy>
    <i name="e_fr_energy">   -171.33120491 </i>
    <i name="e_wo_entrp">   -171.33120491 </i>
    <i name="e_0_energy">   -171.33120491 </i>
   </energy>
  </scstep>
  <scstep>
   <time name="total">   14.99   15.00</time>
   <energy>
    <i name="e_fr_energy">   -171.33447809 </i>
    <i name="e_wo_entrp">   -171.33447809 </i>
    <i name="e_0_energy">   -171.33447809 </i>
   </energy>
  </scstep>
  <scstep>
   <time name="total">   15.00   15.00</time>
   <energy>
    <i name="e_fr_energy">   -171.33554584 </i>
    <i name="e_wo_entrp">   -171.33554584 </i>
    <i name="e_0_energy">   -171.33554584 </i>
   </energy>
  </scstep>
  <scstep>
   <time name="total">   15.00   15.01</time>
   <energy>
    <i name="e_fr_energy">   -171.33587481 </i>
    <i name="e_wo_entrp">   -171.33587481 </i>
    <i name="e_0_energy">   -171.33587481 </i>
   </energy>
  </scstep>
  <scstep>
   <time name="total">   15.00   15.01</time>
   <energy>
    <i name="e_fr_energy">   -171.33595689 </i>
    <i name="e_wo_entrp">   -171.33595689 </i>
    <i name="e_0_energy">   -171.33595689 </i>
   </energy>
  </scstep>
  <scstep>
   <time name="total">   15.00   15.01</time>
   <energy>
    <i name="e_fr_energy">   -171.33597459 </i>
    <i name="e_wo_entrp">   -171.33597459 </i>
    <i name="e_0_energy">   -171.33597459 </i>
   </energy>
  </scstep>
  <scstep>
   <time name="total">   16.28   16.29</time>
   <energy>
    <i name="alphaZ">    108.88242310 </i>
    <i name="ewald">  -4485.04590620 </i>
    <i name="hartreedc">  -2395.38964821 </i>
    <i name="XCdc">   -360.87996708 </i>
    <i name="pawpsdc">  11512.82200369 </i>
    <i name="pawaedc"> -10693.99619451 </i>
    <i name="eentropy">     -0.00000000 </i>
    <i name="bandstr">  -1018.20701047 </i>
    <i name="atom">   7160.47832104 </i>
    <i name="e_fr_energy">   -171.33597863 </i>
    <i name="e_wo_entrp">   -171.33597863 </i>
    <i name="e_0_energy">   -171.33597863 </i>
   </energy>
  </scstep>
  <structure>
   <crystal>
    <varray name="basis" >
     <v>      14.59389763       0.00987837       0.00884939 </v>
     <v>       0.00593134       8.78453299      -0.00626855 </v>
     <v>       0.00501605      -0.00591283       8.27770308 </v>
    </varray>
    <i name="volume">   1061.20487948 </i>
    <varray name="rec_basis" >
     <v>       0.06852185      -0.00004630      -0.00004156 </v>
     <v>      -0.00007710       0.11383655       0.00008136 </v>
     <v>      -0.00007331       0.00008626       0.12080657 </v>
    </varray>
   </crystal>
   <varray name="positions" >
    <v>       0.65481178       0.53871580       0.28074710 </v>
    <v>       0.33329056       0.47132547       0.78660641 </v>
    <v>       0.85076008       0.04427574       0.77437588 </v>
    <v>       0.16660292       0.03614484       0.22160009 </v>
    <v>       0.65266081       0.42534888       0.06035843 </v>
    <v>       0.65060188       0.30961286       0.33785100 </v>
    <v>       0.64957560       0.43964014       0.50088502 </v>
    <v>       0.65933364       0.62477856       0.05396615 </v>
    <v>       0.65668972       0.65288894       0.33348778 </v>
    <v>       0.35825161       0.59910849       0.58053422 </v>
    <v>       0.44028520       0.61405400       0.84421646 </v>
    <v>       0.40298189       0.48565161       0.99659496 </v>
    <v>       0.26956888       0.46543459       0.56900357 </v>
    <v>       0.28982584       0.38034577       0.83387512 </v>
    <v>       0.85120387       0.81478970       0.83041103 </v>
    <v>       0.86083517       0.93262572       0.55371304 </v>
    <v>       0.85681591       0.13214426       0.54833302 </v>
    <v>       0.84695837       0.94412742       0.99387100 </v>
    <v>       0.84792539       0.15803350       0.82803082 </v>
    <v>       0.14134858       0.92578367       0.43920150 </v>
    <v>       0.17590177       0.80643833       0.16977252 </v>
    <v>       0.19546236       0.93414384       0.00844761 </v>
    <v>       0.14029861       0.12548613       0.44220323 </v>
    <v>       0.17225911       0.14943270       0.16814927 </v>
    <v>       0.59010786       0.24095324       0.79617717 </v>
    <v>       0.41078266       0.75913959       0.29631311 </v>
    <v>       0.91035516       0.74112319       0.29603505 </v>
    <v>       0.08971285       0.25865677       0.79554532 </v>
    <v>       0.33378631       0.99846014       0.75702350 </v>
    <v>       0.66694077       0.00155220       0.25693303 </v>
    <v>       0.16692499       0.49859327       0.25716551 </v>
    <v>       0.83340129       0.50176919       0.75685345 </v>
    <v>       0.41132462       0.24114265       0.20633831 </v>
    <v>       0.58925664       0.75730931       0.70633428 </v>
    <v>       0.08850437       0.74131218       0.70560026 </v>
    <v>       0.91112676       0.25839501       0.20577108 </v>
    <v>       0.65155999       0.42028577       0.37939630 </v>
    <v>       0.65586596       0.52777776       0.12023934 </v>
    <v>       0.39456670       0.53350240       0.88495658 </v>
    <v>       0.32127010       0.51344985       0.63399080 </v>
    <v>       0.85533650       0.03462182       0.61420775 </v>
    <v>       0.84927501       0.92513515       0.87240498 </v>
    <v>       0.17773583       0.91601134       0.12623870 </v>
    <v>       0.14865231       0.02727258       0.37898251 </v>
    <v>       0.49923269       0.00171520      -0.00004919 </v>
    <v>       0.49899447       0.99968854       0.50009274 </v>
    <v>      -0.00025526       0.50139550       0.50043485 </v>
    <v>      -0.00016267       0.49887495       0.00024416 </v>
   </varray>
  </structure>
  <varray name="forces" >
   <v>      -0.01212158      -0.61065122      -0.49057620 </v>
   <v>       0.49925266       0.61455762      -0.26051885 </v>
   <v>       0.02720079      -0.59350230      -0.45735750 </v>
   <v>      -0.08144794      -0.76783122       0.41101857 </v>
   <v>      -0.00320426       0.09580236      -0.06288790 </v>
   <v>       0.01146775       0.05521838       0.07706921 </v>
   <v>      -0.01088706      -0.07903045       0.07463795 </v>
   <v>       0.00128842       0.09125865      -0.18274639 </v>
   <v>       0.00261510       0.03806447       0.03724465 </v>
   <v>      -0.05725165      -0.03673125      -0.04943466 </v>
   <v>       0.00835019      -0.06608043       0.08630644 </v>
   <v>       0.09513259       0.02725970       0.09152337 </v>
   <v>      -0.03270166       0.02819196      -0.12893333 </v>
   <v>      -0.03724083      -0.03466624       0.00547301 </v>
   <v>      -0.01002567       0.05216029       0.08020878 </v>
   <v>       0.00469757       0.10610657      -0.05241886 </v>
   <v>       0.00818532       0.07662880      -0.16879506 </v>
   <v>       0.00108262      -0.07848396       0.08715036 </v>
   <v>      -0.01033859       0.03125225       0.03738041 </v>
   <v>      -0.01630986       0.08521360       0.05219274 </v>
   <v>       0.02058750       0.00850849      -0.08042933 </v>
   <v>       0.02760327      -0.11089852      -0.09266792 </v>
   <v>      -0.04383908       0.07700529       0.19168559 </v>
   <v>       0.00065159       0.04865246      -0.02368637 </v>
   <v>       0.11241876       0.04764079      -0.04759061 </v>
   <v>       0.00451636      -0.05982483      -0.04527604 </v>
   <v>      -0.04978170       0.07229587      -0.06552831 </v>
   <v>       0.06280317      -0.09904574      -0.10757322 </v>
   <v>      -0.05397542      -0.01734183      -0.00977993 </v>
   <v>       0.09561198       0.02715442      -0.01356065 </v>
   <v>       0.11771211      -0.00879119      -0.00671593 </v>
   <v>      -0.07362810       0.04312292      -0.01488447 </v>
   <v>      -0.05389956       0.07226583       0.12148816 </v>
   <v>       0.08187712      -0.14117940       0.06875758 </v>
   <v>       0.00721571       0.06972064       0.04463485 </v>
   <v>      -0.05261718      -0.08250916       0.04199928 </v>
   <v>       0.02590497       0.50866116      -0.44753941 </v>
   <v>      -0.01066438      -0.08882758       0.97588421 </v>
   <v>      -0.57893599      -0.29590099      -0.56808115 </v>
   <v>       0.11689444      -0.24019059       0.79875385 </v>
   <v>      -0.05473377      -0.10579417       0.92558346 </v>
   <v>       0.01418532       0.51473774      -0.45158152 </v>
   <v>      -0.11042389       0.67019362       0.48244177 </v>
   <v>       0.19615274      -0.02109992      -0.92390425 </v>
   <v>      -0.04998841      -0.04754450      -0.00912868 </v>
   <v>      -0.08041972       0.11424279       0.02032829 </v>
   <v>      -0.03753008      -0.06047695       0.02252011 </v>
   <v>      -0.02144169       0.07048576       0.02731390 </v>
  </varray>
  <varray name="stress" >
   <v>      -4.11792336      -0.53820576       0.25333930 </v>
   <v>      -0.53820628      -8.89992180       0.26448470 </v>
   <v>       0.25333972       0.26448552     -13.83019970 </v>
  </varray>
  <energy>
   <i name="e_fr_energy">   -171.33597863 </i>
   <i name="e_wo_entrp">   -171.33597863 </i>
   <i name="e_0_energy">   -171.33597863 </i>
  </energy>
  <time name="totalsc">  190.97  191.09</time>
 </calculation>
 <calculation>
  <scstep>
   <time name="total">   15.03   15.03</time>
   <energy>
    <i name="alphaZ">    108.58892588 </i>
    <i name="ewald">  -4463.58034418 </i>
    <i name="hartreedc">  -2398.53644788 </i>
    <i name="XCdc">   -361.00465437 </i>
    <i name="pawpsdc">  11603.97156406 </i>
    <i name="pawaedc"> -10785.09639908 </i>
    <i name="eentropy">     -0.00000000 </i>
    <i name="bandstr">  -1035.84266983 </i>
    <i name="atom">   7160.47832104 </i>
    <i name="e_fr_energy">   -171.02170436 </i>
    <i name="e_wo_entrp">   -171.02170436 </i>
    <i name="e_0_energy">   -171.02170436 </i>
   </energy>
  </scstep>
  <scstep>
   <time name="total">   15.00   15.00</time>
   <energy>
    <i name="e_fr_energy">   -171.25825559 </i>
    <i name="e_wo_entrp">   -171.25825559 </i>
    <i name="e_0_energy">   -171.25825559 </i>
   </energy>
  </scstep>
  <scstep>
   <time name="total">   15.00   15.00</time>
   <energy>
    <i name="e_fr_energy">   -171.33818325 </i>
    <i name="e_wo_entrp">   -171.33818325 </i>
    <i name="e_0_energy">   -171.33818325 </i>
   </energy>
  </scstep>
  <scstep>
   <time name="total">   15.00   15.00</time>
   <energy>
    <i name="e_fr_energy">   -171.35060290 </i>
    <i name="e_wo_entrp">   -171.35060290 </i>
    <i name="e_0_energy">   -171.35060290 </i>
   </energy>
  </scstep>
  <scstep>
   <time name="total">   15.00   15.01</time>
   <energy>
    <i name="e_fr_energy">   -171.35328365 </i>
    <i name="e_wo_entrp">   -171.35328365 </i>
    <i name="e_0_energy">   -171.35328365 </i>
   </energy>
  </scstep>
  <scstep>
   <time name="total">   14.99   14.99</time>
   <energy>
    <i name="e_fr_energy">   -171.35395450 </i>
    <i name="e_wo_entrp">   -171.35395450 </i>
    <i name="e_0_energy">   -171.35395450 </i>
   </energy>
  </scstep>
  <scstep>
   <time name="total">   15.01   15.01</time>
   <energy>
    <i name="e_fr_energy">   -171.35416863 </i>
    <i name="e_wo_entrp">   -171.35416863 </i>
    <i name="e_0_energy">   -171.35416863 </i>
   </energy>
  </scstep>
  <scstep>
   <time name="total">   14.98   14.99</time>
   <energy>
    <i name="e_fr_energy">   -171.35423554 </i>
    <i name="e_wo_entrp">   -171.35423554 </i>
    <i name="e_0_energy">   -171.35423554 </i>
   </energy>
  </scstep>
  <scstep>
   <time name="total">   14.99   15.00</time>
   <energy>
    <i name="e_fr_energy">   -171.35425230 </i>
    <i name="e_wo_entrp">   -171.35425230 </i>
    <i name="e_0_energy">   -171.35425230 </i>
   </energy>
  </scstep>
  <scstep>
   <time name="total">   16.28   16.29</time>
   <energy>
    <i name="alphaZ">    108.58892588 </i>
    <i name="ewald">  -4463.58034418 </i>
    <i name="hartreedc">  -2411.92294867 </i>
    <i name="XCdc">   -360.60836074 </i>
    <i name="pawpsdc">  11581.90450237 </i>
    <i name="pawaedc"> -10763.11422399 </i>
    <i name="eentropy">     -0.00000000 </i>
    <i name="bandstr">  -1023.10012767 </i>
    <i name="atom">   7160.47832104 </i>
    <i name="e_fr_energy">   -171.35425595 </i>
    <i name="e_wo_entrp">   -171.35425595 </i>
    <i name="e_0_energy">   -171.35425595 </i>
   </energy>
  </scstep>
  <structure>
   <crystal>
    <varray name="basis" >
     <v>      14.61005825       0.00775190       0.00544341 </v>
     <v>       0.00465411       8.79080373      -0.00456666 </v>
     <v>       0.00308509      -0.00430759       8.28497584 </v>
    </varray>
    <i name="volume">   1064.07313405 </i>
    <varray name="rec_basis" >
     <v>       0.06844603      -0.00003625      -0.00002551 </v>
     <v>      -0.00006038       0.11375530       0.00005917 </v>
     <v>      -0.00004500       0.00006273       0.12070046 </v>
    </varray>
   </crystal>
   <varray name="positions" >
    <v>       0.65479981       0.53832823       0.28044466 </v>
    <v>       0.33347163       0.47167554       0.78643514 </v>
    <v>       0.85078998       0.04390706       0.77408581 </v>
    <v>       0.16658524       0.03568655       0.22185177 </v>
    <v>       0.65268473       0.42566357       0.06065509 </v>
    <v>       0.65059155       0.31003793       0.33794933 </v>
    <v>       0.64959006       0.43964920       0.50043476 </v>
    <v>       0.65933239       0.62455475       0.05423614 </v>
    <v>       0.65667807       0.65236715       0.33324392 </v>
    <v>       0.35814762       0.59884426       0.58078435 </v>
    <v>       0.44006662       0.61374936       0.84431686 </v>
    <v>       0.40291524       0.48578086       0.99618923 </v>
    <v>       0.26974343       0.46557730       0.56934900 </v>
    <v>       0.29003580       0.38075716       0.83368776 </v>
    <v>       0.85120471       0.81520074       0.83049564 </v>
    <v>       0.86080501       0.93295209       0.55400650 </v>
    <v>       0.85681031       0.13192099       0.54860841 </v>
    <v>       0.84695810       0.94414140       0.99341675 </v>
    <v>       0.84795085       0.15752157       0.82779048 </v>
    <v>       0.14138612       0.92607535       0.43892381 </v>
    <v>       0.17590541       0.80683570       0.16969391 </v>
    <v>       0.19538845       0.93417619       0.00890439 </v>
    <v>       0.14033715       0.12522025       0.44189547 </v>
    <v>       0.17223793       0.14893908       0.16837794 </v>
    <v>       0.58977779       0.24055567       0.79644122 </v>
    <v>       0.41081622       0.75950962       0.29653412 </v>
    <v>       0.91053187       0.74066479       0.29634782 </v>
    <v>       0.08951363       0.25918659       0.79602712 </v>
    <v>       0.33386362       0.99853975       0.75704832 </v>
    <v>       0.66662807       0.00146523       0.25698616 </v>
    <v>       0.16661383       0.49862672       0.25714503 </v>
    <v>       0.83360290       0.50160972       0.75693261 </v>
    <v>       0.41144700       0.24080414       0.20589398 </v>
    <v>       0.58894736       0.75814877       0.70589949 </v>
    <v>       0.08844161       0.74092290       0.70540658 </v>
    <v>       0.91131137       0.25887623       0.20552105 </v>
    <v>       0.65157326       0.42077879       0.37883968 </v>
    <v>       0.65583833       0.52765664       0.12120251 </v>
    <v>       0.39426395       0.53319375       0.88427625 </v>
    <v>       0.32138673       0.51329896       0.63485454 </v>
    <v>       0.85533638       0.03448955       0.61512955 </v>
    <v>       0.84928217       0.92563319       0.87183147 </v>
    <v>       0.17767657       0.91664171       0.12686011 </v>
    <v>       0.14874860       0.02717293       0.37802723 </v>
    <v>       0.49948225       0.00199234      -0.00002934 </v>
    <v>       0.49932340       0.99895341       0.50005814 </v>
    <v>      -0.00017015       0.50177770       0.50029287 </v>
    <v>      -0.00010748       0.49840722       0.00016123 </v>
   </varray>
  </structure>
  <varray name="forces" >
   <v>      -0.00351857      -0.27563789      -0.22486098 </v>
   <v>       0.22739922       0.28258718      -0.11780502 </v>
   <v>       0.00799378      -0.26878927      -0.21045883 </v>
[...]
  <energy>
   <i name="e_fr_energy">   -171.71728781 </i>
   <i name="e_wo_entrp">   -171.71728781 </i>
   <i name="e_0_energy">   -171.71728781 </i>
  </energy>
  <time name="totalsc">  145.95  145.99</time>
 </calculation>
 <calculation>
  <scstep>
   <time name="total">   15.02   15.02</time>
   <energy>
    <i name="alphaZ">    116.96407437 </i>
    <i name="ewald">  -4681.05690076 </i>
    <i name="hartreedc">  -2288.29221601 </i>
    <i name="XCdc">   -359.34178351 </i>
    <i name="pawpsdc">  11679.79039520 </i>
    <i name="pawaedc"> -10861.01719414 </i>
    <i name="eentropy">     -0.00000000 </i>
    <i name="bandstr">   -939.23760326 </i>
    <i name="atom">   7160.47832104 </i>
    <i name="e_fr_energy">   -171.71290706 </i>
    <i name="e_wo_entrp">   -171.71290706 </i>
    <i name="e_0_energy">   -171.71290706 </i>
   </energy>
  </scstep>
  <scstep>
   <time name="total">   15.01   15.01</time>
   <energy>
    <i name="e_fr_energy">   -171.71655363 </i>
    <i name="e_wo_entrp">   -171.71655363 </i>
    <i name="e_0_energy">   -171.71655363 </i>
   </energy>
  </scstep>
  <scstep>
   <time name="total">   14.99   15.00</time>
   <energy>
    <i name="e_fr_energy">   -171.71719228 </i>
    <i name="e_wo_entrp">   -171.71719228 </i>
    <i name="e_0_energy">   -171.71719228 </i>
   </energy>
  </scstep>
  <scstep>
   <time name="total">   14.99   15.00</time>
   <energy>
    <i name="e_fr_energy">   -171.71730019 </i>
    <i name="e_wo_entrp">   -171.71730019 </i>
    <i name="e_0_energy">   -171.71730019 </i>
   </energy>
  </scstep>
  <scstep>
   <time name="total">   14.99   15.00</time>
   <energy>
    <i name="e_fr_energy">   -171.71732441 </i>
    <i name="e_wo_entrp">   -171.71732441 </i>
    <i name="e_0_energy">   -171.71732441 </i>
   </energy>
  </scstep>
  <scstep>
   <time name="total">   15.00   15.01</time>
   <energy>
    <i name="e_fr_energy">   -171.71733133 </i>
    <i name="e_wo_entrp">   -171.71733133 </i>
    <i name="e_0_energy">   -171.71733133 </i>
   </energy>
  </scstep>
  <scstep>
   <time name="total">   15.00   15.00</time>
   <energy>
    <i name="e_fr_energy">   -171.71733360 </i>
    <i name="e_wo_entrp">   -171.71733360 </i>
    <i name="e_0_energy">   -171.71733360 </i>
   </energy>
  </scstep>
  <scstep>
   <time name="total">   16.26   16.27</time>
   <energy>
    <i name="alphaZ">    116.96407437 </i>
    <i name="ewald">  -4681.05690076 </i>
    <i name="hartreedc">  -2288.24659823 </i>
    <i name="XCdc">   -359.34144500 </i>
    <i name="pawpsdc">  11680.57009065 </i>
    <i name="pawaedc"> -10861.79572834 </i>
    <i name="eentropy">     -0.00000000 </i>
    <i name="bandstr">   -939.28914799 </i>
    <i name="atom">   7160.47832104 </i>
    <i name="e_fr_energy">   -171.71733426 </i>
    <i name="e_wo_entrp">   -171.71733426 </i>
    <i name="e_0_energy">   -171.71733426 </i>
   </energy>
  </scstep>
  <structure>
   <crystal>
    <varray name="basis" >
     <v>      14.59615768      -0.01215864       0.02506512 </v>
     <v>      -0.00579864       8.60994376      -0.11181311 </v>
     <v>       0.01734298      -0.10599220       7.86219079 </v>
    </varray>
    <i name="volume">    987.88076007 </i>
    <varray name="rec_basis" >
     <v>       0.06851148       0.00004419      -0.00015053 </v>
     <v>       0.00009408       0.11616518       0.00156584 </v>
     <v>      -0.00021708       0.00165192       0.12721376 </v>
    </varray>
   </crystal>
   <varray name="positions" >
    <v>       0.66171654       0.53133741       0.31040141 </v>
    <v>       0.32093965       0.46330210       0.79364722 </v>
    <v>       0.84157077       0.06669037       0.75823314 </v>
    <v>       0.17839293       0.02469333       0.20427789 </v>
    <v>       0.67540276       0.45672264       0.06010319 </v>
    <v>       0.65769739       0.29222686       0.31936641 </v>
    <v>       0.64293638       0.39367275       0.51318613 </v>
    <v>       0.67776742       0.65825175       0.10040487 </v>
    <v>       0.65776313       0.63703479       0.39077200 </v>
    <v>       0.36198350       0.58482935       0.58307146 </v>
    <v>       0.44605603       0.55683089       0.85852270 </v>
    <v>       0.39294173       0.44079745       0.01158769 </v>
    <v>       0.25663088       0.49060953       0.56801380 </v>
    <v>       0.26485823       0.39087093       0.83989103 </v>
    <v>       0.83904514       0.83811704       0.82881114 </v>
    <v>       0.85510732       0.93980908       0.53296325 </v>
    <v>       0.85390129       0.14053280       0.51568289 </v>
    <v>       0.83282577       0.97946484      -0.00620521 </v>
    <v>       0.83875325       0.18596341       0.80966478 </v>
    <v>       0.13266342       0.94520324       0.43517687 </v>
    <v>       0.18017634       0.78599920       0.17435659 </v>
    <v>       0.21631492       0.89354231      -0.00049633 </v>
    <v>       0.14135215       0.14625073       0.41793185 </v>
    <v>       0.19344181       0.13198713       0.13779219 </v>
    <v>       0.60351060       0.24025695       0.81529018 </v>
    <v>       0.41738704       0.74451751       0.29420970 </v>
    <v>       0.93024815       0.77569759       0.25541983 </v>
    <v>       0.07893204       0.25404841       0.74539756 </v>
    <v>       0.32964840       0.01779537       0.76115788 </v>
    <v>       0.67187705      -0.02226653       0.25938304 </v>
    <v>       0.17124003       0.47859099       0.23400120 </v>
    <v>       0.82769127       0.53262633       0.73384163 </v>
    <v>       0.41463185       0.24549252       0.27167846 </v>
    <v>       0.58094014       0.73609535       0.75117833 </v>
    <v>       0.08735170       0.75697689       0.71052688 </v>
    <v>       0.89459842       0.27326650       0.19841754 </v>
    <v>       0.65403595       0.39707428       0.38466067 </v>
    <v>       0.67408216       0.54845366       0.14619542 </v>
    <v>       0.39023480       0.49246906       0.89571231 </v>
    <v>       0.31359600       0.51586380       0.63866547 </v>
    <v>       0.84856274       0.04676298       0.59226760 </v>
    <v>       0.83750180       0.95334337       0.86657587 </v>
    <v>       0.19060358       0.89224501       0.12085379 </v>
    <v>       0.14896470       0.03850943       0.36220984 </v>
    <v>       0.49653046      -0.00319477       0.02173588 </v>
    <v>       0.50167790      -0.00318585       0.52338811 </v>
    <v>      -0.00340442       0.50909769       0.48160942 </v>
    <v>      -0.00213563       0.51319208      -0.01806876 </v>
   </varray>
  </structure>
  <varray name="forces" >
   <v>      -0.00066673      -0.00582498      -0.00721601 </v>
   <v>       0.00672059       0.00300658      -0.00611581 </v>
   <v>      -0.00028408      -0.01195690      -0.00482455 </v>
   <v>       0.00073507       0.00359855      -0.00039572 </v>
   <v>      -0.00387016       0.00834430       0.01043131 </v>
   <v>      -0.00068005       0.00148972       0.00142166 </v>
   <v>       0.00166138       0.00013760      -0.00201737 </v>
   <v>      -0.00274150      -0.00070420       0.00092188 </v>
   <v>       0.00103438      -0.00254368      -0.00229659 </v>
   <v>      -0.00221237      -0.00309521       0.00505043 </v>
   <v>      -0.00993079      -0.00380927       0.00159222 </v>
   <v>      -0.00151556      -0.00129459       0.00263633 </v>
   <v>      -0.00200444      -0.00123000       0.00433216 </v>
   <v>      -0.00317847       0.00140863      -0.00064748 </v>
   <v>       0.00012394       0.00877982       0.00202235 </v>
   <v>      -0.00108709      -0.00000694       0.00610714 </v>
   <v>      -0.00000723      -0.00146559       0.00047518 </v>
   <v>      -0.00072345       0.00419713       0.00660032 </v>
   <v>      -0.00025006       0.00501263      -0.00230565 </v>
   <v>       0.00098198      -0.00154449       0.00022631 </v>
   <v>      -0.00131438      -0.00669117       0.00194321 </v>
   <v>       0.00411683       0.00004113      -0.00734809 </v>
   <v>      -0.00026706       0.00506253      -0.00059914 </v>
   <v>      -0.00153643      -0.00307782      -0.00128773 </v>
   <v>      -0.00178622       0.00142899      -0.00231363 </v>
   <v>       0.00319375      -0.00051633       0.00312796 </v>
   <v>       0.00133713       0.00094227      -0.00124815 </v>
   <v>      -0.00298709      -0.00116927      -0.00252412 </v>
   <v>       0.00150054      -0.00070554      -0.00105259 </v>
   <v>       0.00351582       0.00127879       0.00022429 </v>
   <v>      -0.00064268       0.00001143       0.00001801 </v>
   <v>       0.00382680       0.00242777       0.00063711 </v>
   <v>       0.00024438       0.00107696      -0.00136227 </v>
   <v>       0.00250853      -0.00155176       0.00355647 </v>
   <v>       0.00271792       0.00111936      -0.00018691 </v>
   <v>       0.00075953      -0.00157064       0.00179356 </v>
   <v>       0.00136056       0.00493003       0.00407562 </v>
   <v>      -0.00074704      -0.00089764      -0.00544987 </v>
   <v>       0.00629880       0.00659324      -0.00296622 </v>
   <v>      -0.00586447       0.00064730      -0.00325098 </v>
   <v>       0.00129558       0.00057308      -0.00131069 </v>
   <v>      -0.00198950      -0.00662000      -0.00735777 </v>
   <v>      -0.00404652       0.00703359       0.01185543 </v>
   <v>       0.00262645      -0.01167461      -0.00812482 </v>
   <v>       0.00124077       0.00005162       0.00169593 </v>
   <v>       0.00012942      -0.00136086      -0.00066656 </v>
   <v>       0.00021247       0.00113984       0.00306578 </v>
   <v>       0.00219077      -0.00102141      -0.00094196 </v>
  </varray>
  <varray name="stress" >
   <v>      -0.02668573      -0.01272135      -0.01669987 </v>
   <v>      -0.01272167      -0.09258147      -0.03998507 </v>
   <v>      -0.01670073      -0.03998408      -0.07005658 </v>
  </varray>
  <energy>
   <i name="e_fr_energy">   -171.71733426 </i>
   <i name="e_wo_entrp">   -171.71733426 </i>
   <i name="e_0_energy">   -171.71733426 </i>
  </energy>
  <time name="totalsc">  146.02  146.13</time>
 </calculation>
 <calculation>
  <scstep>
   <time name="total">   15.02   15.02</time>
   <energy>
    <i name="alphaZ">    116.96745598 </i>
    <i name="ewald">  -4681.09316738 </i>
    <i name="hartreedc">  -2288.25220355 </i>
    <i name="XCdc">   -359.33882689 </i>
    <i name="pawpsdc">  11680.31075962 </i>
    <i name="pawaedc"> -10861.53728171 </i>
    <i name="eentropy">     -0.00000000 </i>
    <i name="bandstr">   -939.25138436 </i>
    <i name="atom">   7160.47832104 </i>
    <i name="e_fr_energy">   -171.71632725 </i>
    <i name="e_wo_entrp">   -171.71632725 </i>
    <i name="e_0_energy">   -171.71632725 </i>
   </energy>
  </scstep>
  <scstep>
   <time name="total">   14.98   14.99</time>
   <energy>
    <i name="e_fr_energy">   -171.71716197 </i>
    <i name="e_wo_entrp">   -171.71716197 </i>
    <i name="e_0_energy">   -171.71716197 </i>
   </energy>
  </scstep>
  <scstep>
   <time name="total">   15.00   15.01</time>
   <energy>
    <i name="e_fr_energy">   -171.71730775 </i>
    <i name="e_wo_entrp">   -171.71730775 </i>
    <i name="e_0_energy">   -171.71730775 </i>
   </energy>
  </scstep>
  <scstep>
   <time name="total">   14.98   14.99</time>
   <energy>
    <i name="e_fr_energy">   -171.71733228 </i>
    <i name="e_wo_entrp">   -171.71733228 </i>
    <i name="e_0_energy">   -171.71733228 </i>
   </energy>
  </scstep>
  <scstep>
   <time name="total">   14.99   15.00</time>
   <energy>
    <i name="e_fr_energy">   -171.71733778 </i>
    <i name="e_wo_entrp">   -171.71733778 </i>
    <i name="e_0_energy">   -171.71733778 </i>
   </energy>
  </scstep>
  <scstep>
   <time name="total">   14.99   15.00</time>
   <energy>
    <i name="e_fr_energy">   -171.71733937 </i>
    <i name="e_wo_entrp">   -171.71733937 </i>
    <i name="e_0_energy">   -171.71733937 </i>
   </energy>
  </scstep>
  <scstep>
   <time name="total">   15.09   15.80</time>
   <energy>
    <i name="e_fr_energy">   -171.71733990 </i>
    <i name="e_wo_entrp">   -171.71733990 </i>
    <i name="e_0_energy">   -171.71733990 </i>
   </energy>
  </scstep>
  <scstep>
   <time name="total">   16.26   16.27</time>
   <energy>
    <i name="alphaZ">    116.96745598 </i>
    <i name="ewald">  -4681.09316738 </i>
    <i name="hartreedc">  -2288.22978196 </i>
    <i name="XCdc">   -359.33870624 </i>
    <i name="pawpsdc">  11680.83807274 </i>
    <i name="pawaedc"> -10862.06401577 </i>
    <i name="eentropy">     -0.00000000 </i>
    <i name="bandstr">   -939.27551846 </i>
    <i name="atom">   7160.47832104 </i>
    <i name="e_fr_energy">   -171.71734005 </i>
    <i name="e_wo_entrp">   -171.71734005 </i>
    <i name="e_0_energy">   -171.71734005 </i>
   </energy>
  </scstep>
  <structure>
   <crystal>
    <varray name="basis" >
     <v>      14.59602153      -0.01225386       0.02498403 </v>
     <v>      -0.00585429       8.60983114      -0.11177745 </v>
     <v>       0.01729993      -0.10595904       7.86213873 </v>
    </varray>
    <i name="volume">    987.85219978 </i>
    <varray name="rec_basis" >
     <v>       0.06851211       0.00004464      -0.00015015 </v>
     <v>       0.00009485       0.11616668       0.00156538 </v>
     <v>      -0.00021637       0.00165142       0.12721459 </v>
    </varray>
   </crystal>
   <varray name="positions" >
    <v>       0.66171080       0.53133152       0.31043424 </v>
    <v>       0.32092794       0.46329473       0.79364960 </v>
    <v>       0.84157375       0.06670799       0.75819252 </v>
    <v>       0.17840279       0.02468392       0.20423763 </v>
    <v>       0.67540700       0.45670501       0.06013395 </v>
    <v>       0.65769325       0.29221527       0.31940117 </v>
    <v>       0.64292410       0.39366556       0.51323116 </v>
    <v>       0.67776577       0.65824318       0.10043528 </v>
    <v>       0.65775103       0.63703383       0.39080860 </v>
    <v>       0.36198129       0.58480063       0.58306749 </v>
    <v>       0.44604797       0.55680395       0.85855729 </v>
    <v>       0.39292333       0.44080218       0.01159022 </v>
    <v>       0.25663775       0.49060368       0.56800050 </v>
    <v>       0.26483928       0.39087858       0.83988944 </v>
    <v>       0.83904542       0.83817284       0.82887480 </v>
    <v>       0.85512513       0.93974488       0.53298757 </v>
    <v>       0.85391810       0.14044768       0.51559999 </v>
    <v>       0.83281608       0.97957510      -0.00621153 </v>
    <v>       0.83875426       0.18600666       0.80956405 </v>
    <v>       0.13267537       0.94525892       0.43516536 </v>
    <v>       0.18020117       0.78598196       0.17440687 </v>
    <v>       0.21632836       0.89346839      -0.00048139 </v>
    <v>       0.14135440       0.14628765       0.41784059 </v>
    <v>       0.19344254       0.13194018       0.13771378 </v>
    <v>       0.60350347       0.24026415       0.81530885 </v>
    <v>       0.41738816       0.74450304       0.29422371 </v>
    <v>       0.93026122       0.77571890       0.25538738 </v>
    <v>       0.07892483       0.25406207       0.74537327 </v>
    <v>       0.32964538       0.01778630       0.76115690 </v>
    <v>       0.67188205      -0.02227780       0.25939331 </v>
    <v>       0.17124063       0.47857198       0.23399668 </v>
    <v>       0.82768648       0.53267514       0.73384011 </v>
    <v>       0.41463814       0.24549839       0.27169559 </v>
    <v>       0.58093621       0.73609689       0.75121213 </v>
    <v>       0.08734315       0.75699047       0.71052912 </v>
    <v>       0.89458677       0.27328962       0.19840717 </v>
    <v>       0.65403217       0.39705513       0.38469403 </v>
    <v>       0.67408408       0.54844398       0.14622266 </v>
    <v>       0.39021676       0.49245610       0.89572295 </v>
    <v>       0.31359799       0.51585798       0.63866062 </v>
    <v>       0.84857699       0.04671643       0.59223116 </v>
    <v>       0.83749589       0.95341463       0.86659470 </v>
    <v>       0.19062477       0.89221530       0.12085729 </v>
    <v>       0.14897300       0.03855538       0.36217012 </v>
    <v>       0.49652555      -0.00320345       0.02175490 </v>
    <v>       0.50167728      -0.00319417       0.52341117 </v>
    <v>      -0.00340742       0.50910933       0.48161156 </v>
    <v>      -0.00213496       0.51320851      -0.01807971 </v>
   </varray>
  </structure>
  <varray name="forces" >
   <v>      -0.00061996      -0.00886946      -0.00764676 </v>
   <v>       0.00589616       0.00416269      -0.00907026 </v>
   <v>      -0.00002135      -0.00782141      -0.00657053 </v>
   <v>      -0.00021215       0.00110878       0.00244670 </v>
   <v>      -0.00386527       0.00938120       0.01108170 </v>
   <v>      -0.00051468      -0.00075769       0.00039837 </v>
   <v>       0.00224850      -0.00043815      -0.00590603 </v>
   <v>      -0.00264065      -0.00007897       0.00028234 </v>
   <v>       0.00113568      -0.00396497      -0.00331112 </v>
   <v>       0.00295206       0.00083853       0.00288116 </v>
   <v>      -0.00984652      -0.00311619       0.00027235 </v>
   <v>      -0.00229634      -0.00416560       0.00747025 </v>
   <v>      -0.00340230      -0.00166791       0.00362327 </v>
   <v>      -0.00380349       0.00093959      -0.00078406 </v>
   <v>       0.00000479       0.00955958       0.00264945 </v>
   <v>      -0.00092394      -0.00245313       0.00482406 </v>
   <v>       0.00021575       0.00062530      -0.00073958 </v>
   <v>      -0.00109095       0.00571651       0.01164483 </v>
   <v>      -0.00025881       0.00417626      -0.00280521 </v>
   <v>       0.00124586      -0.00018042      -0.00021718 </v>
   <v>      -0.00111000      -0.00562429       0.00112506 </v>
   <v>       0.00610031       0.00091763      -0.01240883 </v>
   <v>      -0.00107198       0.01361777       0.00278653 </v>
   <v>      -0.00043486       0.00181049      -0.00379361 </v>
   <v>      -0.00201259       0.00143803      -0.00228676 </v>
   <v>       0.00296467      -0.00054961       0.00308127 </v>
   <v>       0.00171872       0.00088101      -0.00133044 </v>
   <v>      -0.00262595      -0.00141813      -0.00250353 </v>
   <v>       0.00123786      -0.00056274      -0.00103985 </v>
   <v>       0.00311604       0.00118058       0.00019411 </v>
   <v>      -0.00055761      -0.00002892       0.00010859 </v>
   <v>       0.00405838       0.00243914       0.00062430 </v>
   <v>      -0.00009670       0.00090304      -0.00133803 </v>
   <v>       0.00221608      -0.00180709       0.00359043 </v>
   <v>       0.00333820       0.00148967      -0.00035824 </v>
   <v>       0.00093995      -0.00169695       0.00189588 </v>
   <v>       0.00071800       0.01212833       0.00749263 </v>
   <v>      -0.00142631      -0.00226380      -0.00279846 </v>
   <v>       0.00908814       0.00912138      -0.00460842 </v>
   <v>      -0.01052883      -0.00394201       0.00077784 </v>
   <v>       0.00081666       0.00032125       0.00305210 </v>
   <v>      -0.00139697      -0.01175719      -0.01238268 </v>
   <v>      -0.00695339       0.00470946       0.01974682 </v>
   <v>       0.00397771      -0.02356036      -0.01313628 </v>
   <v>       0.00130627       0.00024796       0.00185918 </v>
   <v>       0.00011460      -0.00113978      -0.00089529 </v>
   <v>       0.00011954       0.00114399       0.00272707 </v>
   <v>       0.00218164      -0.00099342      -0.00070512 </v>
  </varray>
  <varray name="stress" >
   <v>      -0.00889931      -0.00450965      -0.02207647 </v>
   <v>      -0.00450947      -0.05738380      -0.04292413 </v>
   <v>      -0.02207708      -0.04292364      -0.05405517 </v>
  </varray>
  <energy>
   <i name="e_fr_energy">   -171.71734005 </i>
   <i name="e_wo_entrp">   -171.71734005 </i>
   <i name="e_0_energy">   -171.71734005 </i>
  </energy>
  <time name="totalsc">  146.08  146.93</time>
 </calculation>
