hex-FASnI3                              
           1
    14.637000    0.000000    0.000000
     0.000000    8.786000    0.000000
     0.000000    0.000000    8.288000
   C    H    I    N    Sn
     4    20    12     8     4
Direct configuration=     1
   0.65477722  0.53770112  0.28002646
   0.33374952  0.47221309  0.78616470
   0.85084249  0.04331646  0.77365034
   0.16656185  0.03498578  0.22223027
   0.65275110  0.42700353  0.06166800
   0.65058231  0.31166843  0.33839839
   0.64962976  0.43954288  0.49868082
   0.65930046  0.62334695  0.05529186
   0.65664694  0.65091585  0.33258408
   0.35768402  0.59770567  0.58168371
   0.43932273  0.61258122  0.84476448
   0.40272631  0.48637298  0.99457963
   0.27045299  0.46620469  0.57049427
   0.29060413  0.38189991  0.83313804
   0.85119257  0.81679041  0.83091664
   0.86071179  0.93430170  0.55500930
   0.85678887  0.13071201  0.54966964
   0.84697377  0.94404787  0.99166701
   0.84800973  0.15610095  0.82714557
   0.14151266  0.92739348  0.43791750
   0.17592632  0.80845098  0.16924049
   0.19512124  0.93410677  0.01064452
   0.14047368  0.12393591  0.44081200
   0.17217304  0.14751170  0.16904221
   0.58910000  0.23970000  0.79700000
   0.41090000  0.76030000  0.29700000
   0.91090000  0.73970000  0.29700000
   0.08910000  0.26030000  0.79700000
   0.33402000  0.99870000  0.75710000
   0.66598000  0.00130000  0.25710000
   0.16598000  0.49870000  0.25710000
   0.83402000  0.50130000  0.75710000
   0.41170000  0.24010000  0.20500000
   0.58830000  0.75990000  0.70500000
   0.08830000  0.74010000  0.70500000
   0.91170000  0.25990000  0.20500000
   0.65158406  0.42132262  0.37820605
   0.65579154  0.52749731  0.12228558
   0.39397988  0.53272368  0.88344822
   0.32150131  0.51318525  0.63583723
   0.85537912  0.03431811  0.61616263
   0.84929316  0.92619542  0.87116390
   0.17766296  0.91735432  0.12760058
   0.14883791  0.02706155  0.37694074
   0.50000000  0.00260000  0.00000000
   0.50000000  0.99740000  0.50000000
   0.00000000  0.50260000  0.50000000
   0.00000000  0.49740000  0.00000000
hex-FASnI3                              
           1
    14.621996    0.010236    0.002701
     0.006145    8.810144   -0.004977
     0.001530   -0.004695    8.299121
   C    H    I    N    Sn
     4    20    12     8     4
Direct configuration=     2
   0.65479280  0.53802590  0.28014162
   0.33362663  0.47197771  0.78629526
   0.85080834  0.04361398  0.77382835
   0.16656632  0.03528877  0.22207639
   0.65267806  0.42511188  0.06037219
   0.65057773  0.30946569  0.33774496
   0.64958465  0.43977437  0.50107016
   0.65935986  0.62518940  0.05385287
   0.65667942  0.65254218  0.33331096
   0.35835189  0.59931750  0.58050438
   0.44027350  0.61415664  0.84412122
   0.40294166  0.48551609  0.99678856
   0.26946715  0.46530883  0.56905445
   0.28997818  0.38062299  0.83377839
   0.85121978  0.81463494  0.83028634
   0.86082606  0.93241807  0.55372555
   0.85681748  0.13255807  0.54823242
   0.84694143  0.94426571  0.99403874
   0.84795204  0.15769031  0.82785151
   0.14135217  0.92549338  0.43924161
   0.17589479  0.80621446  0.16994429
   0.19547454  0.93431566  0.00829732
   0.14029386  0.12583299  0.44222054
   0.17225041  0.14915519  0.16827489
   0.58966066  0.24044653  0.79652012
   0.41081466  0.75961462  0.29660119
   0.91058908  0.74052041  0.29645308
   0.08944899  0.25935294  0.79621403
   0.33389343  0.99857206  0.75705668
   0.66652306  0.00141929  0.25699959
   0.16649872  0.49863326  0.25713905
   0.83367117  0.50153532  0.75695777
   0.41148754  0.24069126  0.20571777
   0.58885036  0.75842780  0.70574547
   0.08843082  0.74080401  0.70534623
   0.91136791  0.25901866  0.20543771
   0.65159352  0.42140845  0.37814862
   0.65582003  0.52752518  0.12240976
   0.39382943  0.53292510  0.88348375
   0.32154967  0.51305474  0.63592675
   0.85529584  0.03434391  0.61628849
   0.84928796  0.92625697  0.87113359
   0.17755248  0.91742792  0.12759743
   0.14888616  0.02704902  0.37684231
   0.49956598  0.00205725 -0.00001094
   0.49943754  0.99872934  0.50003690
  -0.00013515  0.50188161  0.50024223
  -0.00008314  0.49828221  0.00012428
hex-FASnI3                              
           1
    14.629360    0.005212    0.001375
     0.003129    8.798293   -0.002534
     0.000779   -0.002390    8.293662
   C    H    I    N    Sn
     4    20    12     8     4
Direct configuration=     3
   0.65478522  0.53786690  0.28008508
   0.33368697  0.47209282  0.78623131
   0.85082519  0.04346828  0.77374100
   0.16656418  0.03514050  0.22215173
   0.65271349  0.42603812  0.06100790
   0.65057950  0.31054407  0.33806590
   0.64960698  0.43966041  0.49989888
   0.65933098  0.62428795  0.05455770
   0.65666383  0.65174594  0.33295419
   0.35802401  0.59852922  0.58108209
   0.43980664  0.61338620  0.84443622
   0.40283579  0.48593508  0.99570608
   0.26995127  0.46574715  0.56976032
   0.29028550  0.38124751  0.83346478
   0.85120593  0.81569020  0.83059594
   0.86076946  0.93334049  0.55435538
   0.85680373  0.13165484  0.54893637
   0.84695749  0.94415844  0.99287611
   0.84798074  0.15691212  0.82750500
   0.14143070  0.92642302  0.43859309
   0.17590986  0.80730901  0.16959996
   0.19530087  0.93421423  0.00944786
   0.14038268  0.12490392  0.44152952
   0.17221269  0.14835096  0.16865054
   0.58938532  0.24008156  0.79675522
   0.41085643  0.75995016  0.29679686
   0.91074198  0.74011879  0.29672088
   0.08927728  0.25981692  0.79659963
   0.33395559  0.99863463  0.75707793
   0.66625625  0.00136124  0.25704886
   0.16624384  0.49866621  0.25712001
   0.83384260  0.50141997  0.75702736
   0.41159209  0.24040153  0.20536573
   0.58857968  0.75914855  0.70538058
   0.08836671  0.74045939  0.70517633
   0.91153092  0.25944976  0.20522336
   0.65158889  0.42136646  0.37817675
   0.65580604  0.52751152  0.12234889
   0.39390340  0.53282641  0.88346625
   0.32152589  0.51311863  0.63588291
   0.85533677  0.03433120  0.61622677
   0.84929053  0.92622684  0.87114843
   0.17760678  0.91739183  0.12759893
   0.14886245  0.02705521  0.37689057
   0.49977912  0.00232267 -0.00000549
   0.49971417  0.99807831  0.50001833
  -0.00006888  0.50223312  0.50012368
  -0.00004210  0.49785030  0.00006309
hex-FASnI3                              
           1
    14.593898    0.009878    0.008849
     0.005931    8.784533   -0.006269
     0.005016   -0.005913    8.277703
   C    H    I    N    Sn
     4    20    12     8     4
Direct configuration=     4
   0.65481178  0.53871580  0.28074710
   0.33329056  0.47132547  0.78660641
   0.85076008  0.04427574  0.77437588
   0.16660292  0.03614484  0.22160009
   0.65266081  0.42534888  0.06035843
   0.65060188  0.30961286  0.33785100
   0.64957560  0.43964014  0.50088502
   0.65933364  0.62477856  0.05396615
   0.65668972  0.65288894  0.33348778
   0.35825161  0.59910849  0.58053422
   0.44028520  0.61405400  0.84421646
   0.40298189  0.48565161  0.99659496
   0.26956888  0.46543459  0.56900357
   0.28982584  0.38034577  0.83387512
   0.85120387  0.81478970  0.83041103
   0.86083517  0.93262572  0.55371304
   0.85681591  0.13214426  0.54833302
   0.84695837  0.94412742  0.99387100
   0.84792539  0.15803350  0.82803082
   0.14134858  0.92578367  0.43920150
   0.17590177  0.80643833  0.16977252
   0.19546236  0.93414384  0.00844761
   0.14029861  0.12548613  0.44220323
   0.17225911  0.14943270  0.16814927
   0.59010786  0.24095324  0.79617717
   0.41078266  0.75913959  0.29631311
   0.91035516  0.74112319  0.29603505
   0.08971285  0.25865677  0.79554532
   0.33378631  0.99846014  0.75702350
   0.66694077  0.00155220  0.25693303
   0.16692499  0.49859327  0.25716551
   0.83340129  0.50176919  0.75685345
   0.41132462  0.24114265  0.20633831
   0.58925664  0.75730931  0.70633428
   0.08850437  0.74131218  0.70560026
   0.91112676  0.25839501  0.20577108
   0.65155999  0.42028577  0.37939630
   0.65586596  0.52777776  0.12023934
   0.39456670  0.53350240  0.88495658
   0.32127010  0.51344985  0.63399080
   0.85533650  0.03462182  0.61420775
   0.84927501  0.92513515  0.87240498
   0.17773583  0.91601134  0.12623870
   0.14865231  0.02727258  0.37898251
   0.49923269  0.00171520 -0.00004919
   0.49899447  0.99968854  0.50009274
  -0.00025526  0.50139550  0.50043485
  -0.00016267  0.49887495  0.00024416
hex-FASnI3                              
           1
    14.610058    0.007752    0.005443
     0.004654    8.790804   -0.004567
     0.003085   -0.004308    8.284976
   C    H    I    N    Sn
     4    20    12     8     4
Direct configuration=     5
   0.65479981  0.53832823  0.28044466
   0.33347163  0.47167554  0.78643514
   0.85078998  0.04390706  0.77408581
   0.16658524  0.03568655  0.22185177
   0.65268473  0.42566357  0.06065509
   0.65059155  0.31003793  0.33794933
   0.64959006  0.43964920  0.50043476
   0.65933239  0.62455475  0.05423614
   0.65667807  0.65236715  0.33324392
   0.35814762  0.59884426  0.58078435
   0.44006662  0.61374936  0.84431686
   0.40291524  0.48578086  0.99618923
   0.26974343  0.46557730  0.56934900
   0.29003580  0.38075716  0.83368776
   0.85120471  0.81520074  0.83049564
   0.86080501  0.93295209  0.55400650
   0.85681031  0.13192099  0.54860841
   0.84695810  0.94414140  0.99341675
   0.84795085  0.15752157  0.82779048
   0.14138612  0.92607535  0.43892381
   0.17590541  0.80683570  0.16969391
   0.19538845  0.93417619  0.00890439
   0.14033715  0.12522025  0.44189547
   0.17223793  0.14893908  0.16837794
   0.58977779  0.24055567  0.79644122
   0.41081622  0.75950962  0.29653412
   0.91053187  0.74066479  0.29634782
   0.08951363  0.25918659  0.79602712
   0.33386362  0.99853975  0.75704832
   0.66662807  0.00146523  0.25698616
   0.16661383  0.49862672  0.25714503
   0.83360290  0.50160972  0.75693261
   0.41144700  0.24080414  0.20589398
   0.58894736  0.75814877  0.70589949
   0.08844161  0.74092290  0.70540658
   0.91131137  0.25887623  0.20552105
   0.65157326  0.42077879  0.37883968
   0.65583833  0.52765664  0.12120251
   0.39426395  0.53319375  0.88427625
   0.32138673  0.51329896  0.63485454
   0.85533638  0.03448955  0.61512955
   0.84928217  0.92563319  0.87183147
   0.17767657  0.91664171  0.12686011
   0.14874860  0.02717293  0.37802723
   0.49948225  0.00199234 -0.00002934
   0.49932340  0.99895341  0.50005814
  -0.00017015  0.50177770  0.50029287
  -0.00010748  0.49840722  0.00016123
hex-FASnI3                              
           1
    14.582977    0.008914    0.010142
     0.005354    8.771862   -0.006168
     0.005753   -0.005821    8.261572
   C    H    I    N    Sn
     4    20    12     8     4
Direct configuration=     6
   0.65480854  0.53825572  0.28034873
   0.33351876  0.47179646  0.78639797
   0.85076844  0.04382709  0.77400298
   0.16656271  0.03556445  0.22193407
   0.65265666  0.42547740  0.06029960
   0.65061182  0.30969238  0.33794333
   0.64956850  0.43954675  0.50092064
   0.65933018  0.62479009  0.05381279
   0.65669270  0.65297025  0.33354783
   0.35820303  0.59903818  0.58049473
   0.44028859  0.61397364  0.84431589
   0.40303942  0.48570047  0.99664594
   0.26956992  0.46548247  0.56887619
   0.28978470  0.38027675  0.83389271
   0.85119582  0.81486738  0.83050913
   0.86083869  0.93275908  0.55366458
   0.85681995  0.13214221  0.54819115
   0.84696173  0.94403396  0.99392126
   0.84791590  0.15810829  0.82809149
   0.14133965  0.92591102  0.43924166
   0.17591418  0.80648718  0.16966655
   0.19547434  0.93401579  0.00838919
   0.14027603  0.12549490  0.44238023
   0.17226049  0.14951271  0.16811026
   0.59023595  0.24107135  0.79608040
   0.41078063  0.75901498  0.29622663
   0.91029303  0.74127803  0.29590969
   0.08978601  0.25846383  0.79534236
   0.33374109  0.99842787  0.75700922
   0.66705519  0.00159661  0.25691039
   0.16705268  0.49857915  0.25716304
   0.83332058  0.50184306  0.75682368
   0.41127121  0.24127514  0.20654778
   0.58936150  0.75701625  0.70648714
   0.08851896  0.74145077  0.70568108
   0.91106201  0.25822769  0.20586090
   0.65156944  0.42058680  0.37914605
   0.65586666  0.52774048  0.12087644
   0.39435372  0.53331062  0.88461766
   0.32129322  0.51328715  0.63448734
   0.85531188  0.03457258  0.61480741
   0.84928095  0.92544236  0.87215447
   0.17770162  0.91642019  0.12651098
   0.14872704  0.02728964  0.37839269
   0.49915610  0.00162166 -0.00006453
   0.49888526  0.99993294  0.50012181
  -0.00029382  0.50126886  0.50048489
  -0.00018622  0.49902592  0.00028839
hex-FASnI3                              
           1
    14.501735    0.012399    0.024237
     0.007453    8.715035   -0.010974
     0.013756   -0.010362    8.191361
   C    H    I    N    Sn
     4    20    12     8     4
Direct configuration=     7
   0.65483483  0.53803768  0.28006007
   0.33366043  0.47215996  0.78628612
   0.85070375  0.04358662  0.77375380
   0.16649498  0.03519742  0.22218164
   0.65257253  0.42491749  0.05923006
   0.65067280  0.30865347  0.33792506
   0.64950345  0.43923899  0.50238239
   0.65932375  0.62549741  0.05253927
   0.65673640  0.65478358  0.33446245
   0.35836972  0.59962104  0.57962345
   0.44095571  0.61464785  0.84431273
   0.40341240  0.48545898  0.99801969
   0.26904869  0.46519718  0.56745398
   0.28902997  0.37883264  0.83450946
   0.85116914  0.81386514  0.83054953
   0.86094016  0.93217861  0.55263573
   0.85684913  0.13280710  0.54693595
   0.84697239  0.94371122  0.99543900
   0.84781060  0.15987243  0.82899749
   0.14119981  0.92541712  0.44019790
   0.17594062  0.80543938  0.16958401
   0.19573282  0.93353325  0.00683898
   0.14009202  0.12632090  0.44383891
   0.17232834  0.15123720  0.16730523
   0.59161311  0.24262134  0.79499438
   0.41067390  0.75752769  0.29530134
   0.90957535  0.74312161  0.29459236
   0.09060514  0.25629041  0.79328134
   0.33337288  0.99809154  0.75689174
   0.66833894  0.00199140  0.25668181
   0.16837169  0.49843595  0.25721646
   0.83247207  0.50254465  0.75649659
   0.41074244  0.24269159  0.20851532
   0.59060608  0.75361151  0.70825368
   0.08875119  0.74303792  0.70650710
   0.91031247  0.25627815  0.20688338
   0.65155783  0.42000976  0.38006766
   0.65595199  0.52799236  0.11989549
   0.39462332  0.53366213  0.88564471
   0.32101236  0.51325151  0.63338278
   0.85523842  0.03482208  0.61383834
   0.84927714  0.92486880  0.87312610
   0.17777712  0.91575400  0.12546047
   0.14866202  0.02764071  0.37949231
   0.49817591  0.00050735 -0.00017005
   0.49756823  0.00287812  0.50031471
  -0.00066554  0.49973917  0.50106247
  -0.00042305  0.50088613  0.00067144
hex-FASnI3                              
           1
    14.339249    0.019370    0.052428
     0.011650    8.601383   -0.020584
     0.029763   -0.019444    8.050940
   C    H    I    N    Sn
     4    20    12     8     4
Direct configuration=     8
   0.65488809  0.53759843  0.27947744
   0.33394538  0.47289146  0.78606045
   0.85057400  0.04310233  0.77325109
   0.16635859  0.03445889  0.22268081
   0.65240469  0.42378931  0.05707227
   0.65079577  0.30656204  0.33788676
   0.64937108  0.43862108  0.50533082
   0.65931202  0.62691993  0.04997125
   0.65682275  0.65843485  0.33630939
   0.35870576  0.60079329  0.57786605
   0.44229724  0.61600452  0.84430484
   0.40416108  0.48497401  0.00078915
   0.26800208  0.46462180  0.56458665
   0.28751179  0.37592686  0.83575442
   0.85111573  0.81184766  0.83062994
   0.86114556  0.93100892  0.55055935
   0.85690903  0.13414419  0.54440472
   0.84699222  0.94306313  0.99850009
   0.84759728  0.16342477  0.83082749
   0.14091766  0.92442403  0.44212668
   0.17599419  0.80332999  0.16941618
   0.19625454  0.93256002  0.00371050
   0.13972005  0.12798538  0.44678290
   0.17246518  0.15470775  0.16568320
   0.59438362  0.24573927  0.79280079
   0.41046073  0.75453281  0.29343347
   0.90813287  0.74683200  0.29193979
   0.09225554  0.25191236  0.78911852
   0.33263255  0.99741466  0.75665564
   0.67092098  0.00278482  0.25621672
   0.17102446  0.49814666  0.25731945
   0.83076570  0.50395733  0.75584060
   0.40967636  0.24554550  0.21248767
   0.59310821  0.74675849  0.71180869
   0.08921686  0.74623360  0.70817438
   0.90880442  0.25235535  0.20894616
   0.65153362  0.41884915  0.38192604
   0.65612464  0.52849830  0.11791675
   0.39516429  0.53437061  0.88771590
   0.32044876  0.51317881  0.63115565
   0.85509168  0.03532335  0.61188415
   0.84926855  0.92371524  0.87508536
   0.17793034  0.91441176  0.12334038
   0.14852991  0.02834866  0.38171104
   0.49620501 -0.00173513 -0.00038083
   0.49491831  0.00880817  0.50071189
  -0.00141333  0.49666077  0.50222702
  -0.00090035  0.50463142  0.00144717
hex-FASnI3                              
           1
    14.457184    0.014311    0.031967
     0.008604    8.683874   -0.013609
     0.018145   -0.012852    8.152861
   C    H    I    N    Sn
     4    20    12     8     4
Direct configuration=     9
   0.65484841  0.53792196  0.27990823
   0.33373619  0.47235386  0.78622719
   0.85066872  0.04345881  0.77362243
   0.16645896  0.03500153  0.22231248
   0.65252583  0.42462061  0.05866634
   0.65070500  0.30810021  0.33791723
   0.64947058  0.43907307  0.50315365
   0.65931879  0.62587583  0.05186640
   0.65676172  0.65574824  0.33494242
   0.35845788  0.59993281  0.57916369
   0.44131279  0.61500764  0.84431294
   0.40361372  0.48532892 -0.00125368
   0.26876782  0.46504659  0.56670193
   0.28862661  0.37806189  0.83483368
   0.85115456  0.81333124  0.83057222
   0.86099279  0.93187091  0.55209431
   0.85686324  0.13316293  0.54627297
   0.84698008  0.94353732  0.99624015
   0.84775619  0.16081074  0.82947233
   0.14112617  0.92515265  0.44070246
   0.17595426  0.80488143  0.16954214
   0.19586873  0.93327856  0.00602306
   0.13999593  0.12675873  0.44460635
   0.17236414  0.15215684  0.16687831
   0.59234878  0.24344975  0.79442514
   0.41061498  0.75673664  0.29481498
   0.90919033  0.74410456  0.29389162
   0.09103960  0.25513637  0.79220090
   0.33317564  0.99791218  0.75682868
   0.66902542  0.00220328  0.25656618
   0.16907721  0.49836095  0.25725054
   0.83201802  0.50291790  0.75631935
   0.41046288  0.24344288  0.20954883
   0.59127297  0.75179699  0.70919598
   0.08887714  0.74388241  0.70694147
   0.90991226  0.25523766  0.20742241
   0.65155269  0.41970119  0.38055463
   0.65599636  0.52812791  0.11937802
   0.39476908  0.53384827  0.88618712
   0.32086059  0.51323370  0.63279896
   0.85519787  0.03495617  0.61332647
   0.84927624  0.92456202  0.87363948
   0.17781579  0.91540065  0.12490763
   0.14862890  0.02782618  0.38007156
   0.49765108 -0.00008702 -0.00022829
   0.49686513  0.00444519  0.50040641
  -0.00086412  0.49892328  0.50136783
  -0.00054851  0.50187618  0.00086972
hex-FASnI3                              
           1
    14.438906    0.014605    0.034863
     0.008783    8.669150   -0.014426
     0.019790   -0.013623    8.137515
   C    H    I    N    Sn
     4    20    12     8     4
Direct configuration=    10
   0.65485912  0.53813766  0.28013774
   0.33365017  0.47217119  0.78638127
   0.85064214  0.04366828  0.77385708
   0.16647231  0.03522826  0.22212079
   0.65250711  0.42450976  0.05835818
   0.65072267  0.30784411  0.33795516
   0.64944965  0.43900286  0.50362708
   0.65931682  0.62609665  0.05148967
   0.65676786  0.65590965  0.33504592
   0.35847229  0.60004613  0.57890829
   0.44145803  0.61510887  0.84437722
   0.40371574  0.48525851 -0.00085543
   0.26863663  0.46498205  0.56633497
   0.28856774  0.37796648  0.83487118
   0.85114497  0.81308198  0.83062193
   0.86101611  0.93175746  0.55179554
   0.85687036  0.13337174  0.54590310
   0.84697874  0.94346265  0.99672909
   0.84773496  0.16096467  0.82957866
   0.14108580  0.92506462  0.44098143
   0.17596837  0.80462088  0.16946692
   0.19594398  0.93314994  0.00554084
   0.13994064  0.12701665  0.44503487
   0.17236466  0.15228001  0.16681668
   0.59266447  0.24378294  0.79416870
   0.41059189  0.75639322  0.29458537
   0.90902954  0.74451685  0.29357092
   0.09122652  0.25463495  0.79170431
   0.33304992  0.99783270  0.75679100
   0.66931365  0.00229406  0.25650436
   0.16939150  0.49832099  0.25724402
   0.83180957  0.50307962  0.75624909
   0.41032731  0.24379191  0.21005726
   0.59154603  0.75105409  0.70958718
   0.08892896  0.74425783  0.70715539
   0.90974051  0.25479047  0.20766123
   0.65155550  0.41963797  0.38050218
   0.65601515  0.52806693  0.11919256
   0.39479366  0.53398765  0.88617055
   0.32086626  0.51328008  0.63267256
   0.85518053  0.03488749  0.61314602
   0.84928009  0.92450391  0.87360340
   0.17779929  0.91528938  0.12490126
   0.14862460  0.02777650  0.38024698
   0.49746969 -0.00036408 -0.00024596
   0.49660437  0.00509541  0.50045945
  -0.00095163  0.49856295  0.50148896
  -0.00059879  0.50229374  0.00096987
hex-FASnI3                              
           1
    14.384070    0.015488    0.043553
     0.009322    8.624977   -0.016877
     0.024725   -0.015935    8.091479
   C    H    I    N    Sn
     4    20    12     8     4
Direct configuration=    11
   0.65489122  0.53878591  0.28082759
   0.33339175  0.47162230  0.78684441
   0.85056222  0.04429784  0.77456246
   0.16651245  0.03590953  0.22154469
   0.65245097  0.42417656  0.05743193
   0.65077575  0.30707453  0.33806906
   0.64938662  0.43879198  0.50505005
   0.65931100  0.62676011  0.05035740
   0.65678625  0.65639471  0.33535704
   0.35851568  0.60038660  0.57814065
   0.44189427  0.61541309  0.84457030
   0.40402205  0.48504704  0.00034146
   0.26824270  0.46478802  0.56523215
   0.28839089  0.37767979  0.83498392
   0.85111618  0.81233294  0.83077126
   0.86108626  0.93141647  0.55089751
   0.85689186  0.13399913  0.54479146
   0.84697455  0.94323841  0.99819867
   0.84767115  0.16142726  0.82989832
   0.14096444  0.92480016  0.44181997
   0.17601080  0.80383790  0.16924074
   0.19617018  0.93276328  0.00409133
   0.13977439  0.12779186  0.44632299
   0.17236623  0.15265012  0.16663148
   0.59361281  0.24478409  0.79339769
   0.41052264  0.75536113  0.29389516
   0.90854668  0.74575572  0.29260732
   0.09178819  0.25312799  0.79021136
   0.33267229  0.99759387  0.75667787
   0.67017944  0.00256680  0.25631826
   0.17033558  0.49820085  0.25722407
   0.83118342  0.50356559  0.75603818
   0.40991990  0.24484092  0.21158567
   0.59236615  0.74882170  0.71076247
   0.08908453  0.74538605  0.70779843
   0.90922453  0.25344670  0.20837909
   0.65156394  0.41944800  0.38034452
   0.65607163  0.52788362  0.11863510
   0.39486750  0.53440649  0.88612075
   0.32088332  0.51341942  0.63229266
   0.85512851  0.03468102  0.61260365
   0.84929168  0.92432930  0.87349492
   0.17774972  0.91495499  0.12488209
   0.14861165  0.02762727  0.38077423
   0.49692484 -0.00119666 -0.00029897
   0.49582106  0.00704940  0.50061937
  -0.00121453  0.49748016  0.50185304
  -0.00074988  0.50354861  0.00127106
hex-FASnI3                              
           1
    14.365315    0.015790    0.046525
     0.009506    8.609869   -0.017716
     0.026413   -0.016726    8.075734
   C    H    I    N    Sn
     4    20    12     8     4
Direct configuration=    12
   0.65490214  0.53900882  0.28106494
   0.33330298  0.47143366  0.78700375
   0.85053469  0.04451433  0.77480518
   0.16652629  0.03614367  0.22134659
   0.65243181  0.42406193  0.05711332
   0.65079397  0.30680998  0.33810814
   0.64936482  0.43871963  0.50553950
   0.65930913  0.62698809  0.04996802
   0.65679252  0.65656149  0.33546410
   0.35853066  0.60050357  0.57787664
   0.44204402  0.61551767  0.84463658
   0.40412707  0.48497444  0.00075301
   0.26810759  0.46472123  0.56485294
   0.28833016  0.37758125  0.83502273
   0.85110629  0.81207546  0.83082255
   0.86111046  0.93129915  0.55058855
   0.85689937  0.13421470  0.54440915
   0.84697293  0.94316146  0.99870413
   0.84764919  0.16158632  0.83000834
   0.14092267  0.92470933  0.44210841
   0.17602541  0.80356871  0.16916285
   0.19624802  0.93263021  0.00359262
   0.13971715  0.12805849  0.44676620
   0.17236679  0.15277734  0.16656781
   0.59393847  0.24512815  0.79313224
   0.41049896  0.75500627  0.29365766
   0.90838100  0.74618154  0.29227619
   0.09198122  0.25260978  0.78969747
   0.33254266  0.99751177  0.75663907
   0.67047670  0.00266051  0.25625396
   0.17065970  0.49815951  0.25721684
   0.83096847  0.50373265  0.75596593
   0.40977983  0.24520170  0.21211165
   0.59264760  0.74805435  0.71116618
   0.08913785  0.74577395  0.70801968
   0.90904732  0.25298484  0.20862606
   0.65156687  0.41938268  0.38029027
   0.65609109  0.52782055  0.11844332
   0.39489285  0.53455047  0.88610364
   0.32088923  0.51346728  0.63216200
   0.85511072  0.03460999  0.61241709
   0.84929568  0.92426927  0.87345759
   0.17773270  0.91484004  0.12487548
   0.14860714  0.02757602  0.38095557
   0.49673781 -0.00148285 -0.00031709
   0.49555209  0.00772117  0.50067488
  -0.00130481  0.49710798  0.50197825
  -0.00080181  0.50398002  0.00137485
hex-FASnI3                              
           1
    14.356934    0.015801    0.047457
     0.009517    8.601460   -0.018126
     0.026945   -0.017109    8.068529
   C    H    I    N    Sn
     4    20    12     8     4
Direct configuration=    13
   0.65491783  0.53934435  0.28105043
   0.33318495  0.47123072  0.78707146
   0.85052052  0.04484532  0.77479208
   0.16652809  0.03645802  0.22130943
   0.65241703  0.42388925  0.05678243
   0.65081534  0.30656313  0.33811271
   0.64934516  0.43860229  0.50572742
   0.65929948  0.62706489  0.04967433
   0.65679483  0.65649360  0.33549179
   0.35854232  0.60061578  0.57761192
   0.44215747  0.61557385  0.84467413
   0.40420002  0.48505130  0.00084791
   0.26810540  0.46477985  0.56467289
   0.28839185  0.37771096  0.83500788
   0.85109450  0.81183659  0.83083244
   0.86112930  0.93112391  0.55026034
   0.85690064  0.13427628  0.54412450
   0.84697087  0.94304191  0.99890529
   0.84763289  0.16152058  0.83004987
   0.14087845  0.92456012  0.44241431
   0.17604016  0.80329427  0.16911309
   0.19627021  0.93245143  0.00338257
   0.13967492  0.12813095  0.44708512
   0.17235686  0.15268128  0.16658582
   0.59411373  0.24525867  0.79296539
   0.41048855  0.75480469  0.29348386
   0.90830099  0.74638481  0.29203964
   0.09208013  0.25232028  0.78936710
   0.33235802  0.99746056  0.75659406
   0.67061951  0.00271109  0.25619450
   0.17086242  0.49811882  0.25716125
   0.83081594  0.50382305  0.75593881
   0.40966846  0.24546254  0.21253193
   0.59277484  0.74773380  0.71135807
   0.08916301  0.74601440  0.70820593
   0.90895167  0.25272922  0.20876789
   0.65156479  0.41943646  0.38061759
   0.65611573  0.52803822  0.11849388
   0.39483820  0.53443813  0.88628013
   0.32081435  0.51331811  0.63219837
   0.85508670  0.03481636  0.61248096
   0.84928956  0.92432572  0.87379942
   0.17775434  0.91490447  0.12458182
   0.14862033  0.02782429  0.38094004
   0.49675078 -0.00169996 -0.00030123
   0.49551610  0.00803351  0.50070899
  -0.00135491  0.49687399  0.50201541
  -0.00081688  0.50419672  0.00146088
hex-FASnI3                              
           1
    14.346047    0.015815    0.048668
     0.009530    8.590537   -0.018658
     0.027637   -0.017607    8.059171
   C    H    I    N    Sn
     4    20    12     8     4
Direct configuration=    14
   0.65493821  0.53978059  0.28103158
   0.33303155  0.47096686  0.78715950
   0.85050210  0.04527564  0.77477507
   0.16653043  0.03686671  0.22126114
   0.65239785  0.42366473  0.05635227
   0.65084312  0.30624218  0.33811863
   0.64931960  0.43844974  0.50597172
   0.65928695  0.62716473  0.04929253
   0.65679783  0.65640533  0.33552778
   0.35855749  0.60076165  0.57726779
   0.44230491  0.61564690  0.84472293
   0.40429481  0.48515124  0.00097127
   0.26810256  0.46485606  0.56443883
   0.28847202  0.37787960  0.83498858
   0.85107917  0.81152602  0.83084528
   0.86115381  0.93089606  0.54983365
   0.85690231  0.13435633  0.54375444
   0.84696817  0.94288649  0.99916679
   0.84761171  0.16143511  0.83010385
   0.14082097  0.92436614  0.44281198
   0.17605934  0.80293745  0.16904838
   0.19629905  0.93221898  0.00310948
   0.13962003  0.12822519  0.44749972
   0.17234396  0.15255639  0.16660922
   0.59434151  0.24542834  0.79274846
   0.41047504  0.75454260  0.29325791
   0.90819702  0.74664908  0.29173214
   0.09220868  0.25194387  0.78893758
   0.33211806  0.99739397  0.75653556
   0.67080510  0.00277685  0.25611719
   0.17112588  0.49806592  0.25708895
   0.83061771  0.50394058  0.75590358
   0.40952369  0.24580169  0.21307834
   0.59294019  0.74731706  0.71160749
   0.08919570  0.74632703  0.70844808
   0.90882736  0.25239688  0.20895227
   0.65156207  0.41950641  0.38104311
   0.65614774  0.52832122  0.11855963
   0.39476717  0.53429208  0.88650957
   0.32071704  0.51312418  0.63224566
   0.85505548  0.03508467  0.61256400
   0.84928160  0.92439913  0.87424382
   0.17778246  0.91498822  0.12420006
   0.14863748  0.02814708  0.38091985
   0.49676764 -0.00198224 -0.00028064
   0.49546933  0.00843960  0.50075336
  -0.00142002  0.49656977  0.50206373
  -0.00083647  0.50447846  0.00157273
hex-FASnI3                              
           1
    14.345165    0.015773    0.048308
     0.009510    8.586088   -0.018667
     0.027434   -0.017607    8.058883
   C    H    I    N    Sn
     4    20    12     8     4
Direct configuration=    15
   0.65494407  0.53972360  0.28110772
   0.33304366  0.47099594  0.78717194
   0.85049518  0.04522067  0.77486850
   0.16653839  0.03681354  0.22122344
   0.65239333  0.42369055  0.05619220
   0.65086788  0.30619227  0.33817491
   0.64929844  0.43835742  0.50615794
   0.65927431  0.62720174  0.04906056
   0.65680238  0.65645689  0.33560859
   0.35851157  0.60072038  0.57712734
   0.44231993  0.61555386  0.84478071
   0.40434299  0.48524478  0.00100129
   0.26812970  0.46492692  0.56434851
   0.28849648  0.37791706  0.83505596
   0.85106262  0.81148652  0.83090572
   0.86115417  0.93091506  0.54967283
   0.85689802  0.13437626  0.54353372