LAMMPS data file. CGCMM style. atom_style full generated by VMD/TopoTools v1.8 on Wed Sep 14 11:13:33 BST 2022
 648 atoms
 378 bonds
 486 angles
 432 dihedrals
 162 impropers
 6 atom types
 3 bond types
 4 angle types
 2 dihedral types
 2 improper types
 -6.495001 19.486000  xlo xhi
 -0.653104 21.847103  ylo yhi
 -0.901000 22.806001  zlo zhi
 -12.990500 0.000000 0.000000 xy xz yz

# Pair Coeffs
#
# 1  C
# 2  H
# 3  He
# 4  I
# 5  N
# 6  Pb

# Bond Coeffs
#
# 1  C-He
# 2  C-N
# 3  H-N

# Angle Coeffs
#
# 1  C-N-H
# 2  H-N-H
# 3  He-C-N
# 4  N-C-N

# Dihedral Coeffs
#
# 1  He-C-N-H
# 2  N-C-N-H

# Improper Coeffs
#
# 1  C-He-N-N
# 2  N-C-H-H

 Masses

 1 12.010000 # C
 2 1.008000 # H
 3 1.008000 # He
 4 126.900002 # I
 5 14.010000 # N
 6 207.199997 # Pb

 Atoms # full

1 1 1 0.567100 -0.209000 5.288000 1.456000 # C MOL
2 1 1 0.567100 4.122000 2.787000 5.407000 # C MOL
3 1 1 0.567100 -0.209000 5.288000 9.358000 # C MOL
4 1 1 0.567100 4.122000 2.787000 13.309000 # C MOL
5 1 1 0.567100 -0.209000 5.288000 17.260000 # C MOL
6 1 1 0.567100 4.122000 2.787000 21.212000 # C MOL
7 1 1 0.567100 -4.539000 12.788000 1.456000 # C MOL
8 1 1 0.567100 -0.208000 10.287000 5.407000 # C MOL
9 1 1 0.567100 -4.539000 12.788000 9.358000 # C MOL
10 1 1 0.567100 -0.208000 10.287000 13.309000 # C MOL
11 1 1 0.567100 -4.539000 12.788000 17.260000 # C MOL
12 1 1 0.567100 -0.208000 10.287000 21.212000 # C MOL
13 1 1 0.567100 -8.870000 20.288000 1.456000 # C MOL
14 1 1 0.567100 -4.539000 17.787001 5.407000 # C MOL
15 1 1 0.567100 -8.870000 20.288000 9.358000 # C MOL
16 1 1 0.567100 -4.539000 17.787001 13.309000 # C MOL
17 1 1 0.567100 -8.870000 20.288000 17.260000 # C MOL
18 1 1 0.567100 -4.539000 17.787001 21.212000 # C MOL
19 1 1 0.567100 8.451000 5.288000 1.456000 # C MOL
20 1 1 0.567100 12.782000 2.787000 5.407000 # C MOL
21 1 1 0.567100 8.451000 5.288000 9.358000 # C MOL
22 1 1 0.567100 12.782000 2.787000 13.309000 # C MOL
23 1 1 0.567100 8.451000 5.288000 17.260000 # C MOL
24 1 1 0.567100 12.782000 2.787000 21.212000 # C MOL
25 1 1 0.567100 4.121000 12.788000 1.456000 # C MOL
26 1 1 0.567100 8.452000 10.287000 5.407000 # C MOL
27 1 1 0.567100 4.121000 12.788000 9.358000 # C MOL
28 1 1 0.567100 8.452000 10.287000 13.309000 # C MOL
29 1 1 0.567100 4.121000 12.788000 17.260000 # C MOL
30 1 1 0.567100 8.452000 10.287000 21.212000 # C MOL
31 1 1 0.567100 -0.209000 20.288000 1.456000 # C MOL
32 1 1 0.567100 4.122000 17.787001 5.407000 # C MOL
33 1 1 0.567100 -0.209000 20.288000 9.358000 # C MOL
34 1 1 0.567100 4.122000 17.787001 13.309000 # C MOL
35 1 1 0.567100 -0.209000 20.288000 17.260000 # C MOL
36 1 1 0.567100 4.122000 17.787001 21.212000 # C MOL
37 1 1 0.567100 17.111000 5.288000 1.456000 # C MOL
38 1 1 0.567100 21.441999 2.787000 5.407000 # C MOL
39 1 1 0.567100 17.111000 5.288000 9.358000 # C MOL
40 1 1 0.567100 21.441999 2.787000 13.309000 # C MOL
41 1 1 0.567100 17.111000 5.288000 17.260000 # C MOL
42 1 1 0.567100 21.441999 2.787000 21.212000 # C MOL
43 1 1 0.567100 12.781000 12.788000 1.456000 # C MOL
44 1 1 0.567100 17.112000 10.287000 5.407000 # C MOL
45 1 1 0.567100 12.781000 12.788000 9.358000 # C MOL
46 1 1 0.567100 17.112000 10.287000 13.309000 # C MOL
47 1 1 0.567100 12.781000 12.788000 17.260000 # C MOL
48 1 1 0.567100 17.112000 10.287000 21.212000 # C MOL
49 1 1 0.567100 8.451000 20.288000 1.456000 # C MOL
50 1 1 0.567100 12.782000 17.787001 5.407000 # C MOL
51 1 1 0.567100 8.451000 20.288000 9.358000 # C MOL
52 1 1 0.567100 12.782000 17.787001 13.309000 # C MOL
53 1 1 0.567100 8.451000 20.288000 17.260000 # C MOL
54 1 1 0.567100 12.782000 17.787001 21.212000 # C MOL
55 1 2 0.464800 0.094000 4.684000 -0.491000 # H MOL
56 1 2 0.464800 1.085000 3.697000 1.629000 # H MOL
57 1 2 0.464800 0.594000 4.477000 3.122000 # H MOL
58 1 2 0.464800 -0.972000 6.055000 -0.254000 # H MOL
59 1 2 0.464800 4.425000 2.183000 3.460000 # H MOL
60 1 2 0.464800 5.416000 1.196000 5.580000 # H MOL
61 1 2 0.464800 4.925000 1.976000 7.073000 # H MOL
62 1 2 0.464800 3.359000 3.554000 3.697000 # H MOL
63 1 2 0.464800 0.094000 4.684000 7.411000 # H MOL
64 1 2 0.464800 1.085000 3.697000 9.531000 # H MOL
65 1 2 0.464800 0.594000 4.477000 11.024000 # H MOL
66 1 2 0.464800 -0.972000 6.055000 7.648000 # H MOL
67 1 2 0.464800 4.425000 2.183000 11.362000 # H MOL
68 1 2 0.464800 5.416000 1.196000 13.482000 # H MOL
69 1 2 0.464800 4.925000 1.976000 14.975000 # H MOL
70 1 2 0.464800 3.359000 3.554000 11.599000 # H MOL
71 1 2 0.464800 0.094000 4.684000 15.313000 # H MOL
72 1 2 0.464800 1.085000 3.697000 17.433001 # H MOL
73 1 2 0.464800 0.594000 4.477000 18.926001 # H MOL
74 1 2 0.464800 -0.972000 6.055000 15.550000 # H MOL
75 1 2 0.464800 4.425000 2.183000 19.264999 # H MOL
76 1 2 0.464800 5.416000 1.196000 21.385000 # H MOL
77 1 2 0.464800 4.925000 1.976000 22.878000 # H MOL
78 1 2 0.464800 3.359000 3.554000 19.502001 # H MOL
79 1 2 0.464800 -4.236000 12.184000 -0.491000 # H MOL
80 1 2 0.464800 -3.245000 11.197000 1.629000 # H MOL
81 1 2 0.464800 -3.736000 11.977000 3.122000 # H MOL
82 1 2 0.464800 -5.302000 13.555000 -0.254000 # H MOL
83 1 2 0.464800 0.095000 9.683000 3.460000 # H MOL
84 1 2 0.464800 1.086000 8.696000 5.580000 # H MOL
85 1 2 0.464800 0.595000 9.476000 7.073000 # H MOL
86 1 2 0.464800 -0.971000 11.054000 3.697000 # H MOL
87 1 2 0.464800 -4.236000 12.184000 7.411000 # H MOL
88 1 2 0.464800 -3.245000 11.197000 9.531000 # H MOL
89 1 2 0.464800 -3.736000 11.977000 11.024000 # H MOL
90 1 2 0.464800 -5.302000 13.555000 7.648000 # H MOL
91 1 2 0.464800 0.095000 9.683000 11.362000 # H MOL
92 1 2 0.464800 1.086000 8.696000 13.482000 # H MOL
93 1 2 0.464800 0.595000 9.476000 14.975000 # H MOL
94 1 2 0.464800 -0.971000 11.054000 11.599000 # H MOL
95 1 2 0.464800 -4.236000 12.184000 15.313000 # H MOL
96 1 2 0.464800 -3.245000 11.197000 17.433001 # H MOL
97 1 2 0.464800 -3.736000 11.977000 18.926001 # H MOL
98 1 2 0.464800 -5.302000 13.555000 15.550000 # H MOL
99 1 2 0.464800 0.095000 9.683000 19.264999 # H MOL
100 1 2 0.464800 1.086000 8.696000 21.385000 # H MOL
101 1 2 0.464800 0.595000 9.476000 22.878000 # H MOL
102 1 2 0.464800 -0.971000 11.054000 19.502001 # H MOL
103 1 2 0.464800 -8.567000 19.684000 -0.491000 # H MOL
104 1 2 0.464800 -7.576000 18.697001 1.629000 # H MOL
105 1 2 0.464800 -8.067000 19.476999 3.122000 # H MOL
106 1 2 0.464800 -9.633000 21.055000 -0.254000 # H MOL
107 1 2 0.464800 -4.236000 17.183001 3.460000 # H MOL
108 1 2 0.464800 -3.245000 16.195999 5.580000 # H MOL
109 1 2 0.464800 -3.736000 16.976000 7.073000 # H MOL
110 1 2 0.464800 -5.302000 18.554001 3.697000 # H MOL
111 1 2 0.464800 -8.567000 19.684000 7.411000 # H MOL
112 1 2 0.464800 -7.576000 18.697001 9.531000 # H MOL
113 1 2 0.464800 -8.067000 19.476999 11.024000 # H MOL
114 1 2 0.464800 -9.633000 21.055000 7.648000 # H MOL
115 1 2 0.464800 -4.236000 17.183001 11.362000 # H MOL
116 1 2 0.464800 -3.245000 16.195999 13.482000 # H MOL
117 1 2 0.464800 -3.736000 16.976000 14.975000 # H MOL
118 1 2 0.464800 -5.302000 18.554001 11.599000 # H MOL
119 1 2 0.464800 -8.567000 19.684000 15.313000 # H MOL
120 1 2 0.464800 -7.576000 18.697001 17.433001 # H MOL
121 1 2 0.464800 -8.067000 19.476999 18.926001 # H MOL
122 1 2 0.464800 -9.633000 21.055000 15.550000 # H MOL
123 1 2 0.464800 -4.236000 17.183001 19.264999 # H MOL
124 1 2 0.464800 -3.245000 16.195999 21.385000 # H MOL
125 1 2 0.464800 -3.736000 16.976000 22.878000 # H MOL
126 1 2 0.464800 -5.302000 18.554001 19.502001 # H MOL
127 1 2 0.464800 8.754000 4.684000 -0.491000 # H MOL
128 1 2 0.464800 9.745000 3.697000 1.629000 # H MOL
129 1 2 0.464800 9.254000 4.477000 3.122000 # H MOL
130 1 2 0.464800 7.688000 6.055000 -0.254000 # H MOL
131 1 2 0.464800 13.085000 2.183000 3.460000 # H MOL
132 1 2 0.464800 14.076000 1.196000 5.580000 # H MOL
133 1 2 0.464800 13.585000 1.976000 7.073000 # H MOL
134 1 2 0.464800 12.019000 3.554000 3.697000 # H MOL
135 1 2 0.464800 8.754000 4.684000 7.411000 # H MOL
136 1 2 0.464800 9.745000 3.697000 9.531000 # H MOL
137 1 2 0.464800 9.254000 4.477000 11.024000 # H MOL
138 1 2 0.464800 7.688000 6.055000 7.648000 # H MOL
139 1 2 0.464800 13.085000 2.183000 11.362000 # H MOL
140 1 2 0.464800 14.076000 1.196000 13.482000 # H MOL
141 1 2 0.464800 13.585000 1.976000 14.975000 # H MOL
142 1 2 0.464800 12.019000 3.554000 11.599000 # H MOL
143 1 2 0.464800 8.754000 4.684000 15.313000 # H MOL
144 1 2 0.464800 9.745000 3.697000 17.433001 # H MOL
145 1 2 0.464800 9.254000 4.477000 18.926001 # H MOL
146 1 2 0.464800 7.688000 6.055000 15.550000 # H MOL
147 1 2 0.464800 13.085000 2.183000 19.264999 # H MOL
148 1 2 0.464800 14.076000 1.196000 21.385000 # H MOL
149 1 2 0.464800 13.585000 1.976000 22.878000 # H MOL
150 1 2 0.464800 12.019000 3.554000 19.502001 # H MOL
151 1 2 0.464800 4.424000 12.184000 -0.491000 # H MOL
152 1 2 0.464800 5.415000 11.197000 1.629000 # H MOL
153 1 2 0.464800 4.924000 11.977000 3.122000 # H MOL
154 1 2 0.464800 3.358000 13.555000 -0.254000 # H MOL
155 1 2 0.464800 8.755000 9.683000 3.460000 # H MOL
156 1 2 0.464800 9.746000 8.696000 5.580000 # H MOL
157 1 2 0.464800 9.255000 9.476000 7.073000 # H MOL
158 1 2 0.464800 7.689000 11.054000 3.697000 # H MOL
159 1 2 0.464800 4.424000 12.184000 7.411000 # H MOL
160 1 2 0.464800 5.415000 11.197000 9.531000 # H MOL
161 1 2 0.464800 4.924000 11.977000 11.024000 # H MOL
162 1 2 0.464800 3.358000 13.555000 7.648000 # H MOL
163 1 2 0.464800 8.755000 9.683000 11.362000 # H MOL
164 1 2 0.464800 9.746000 8.696000 13.482000 # H MOL
165 1 2 0.464800 9.255000 9.476000 14.975000 # H MOL
166 1 2 0.464800 7.689000 11.054000 11.599000 # H MOL
167 1 2 0.464800 4.424000 12.184000 15.313000 # H MOL
168 1 2 0.464800 5.415000 11.197000 17.433001 # H MOL
169 1 2 0.464800 4.924000 11.977000 18.926001 # H MOL
170 1 2 0.464800 3.358000 13.555000 15.550000 # H MOL
171 1 2 0.464800 8.755000 9.683000 19.264999 # H MOL
172 1 2 0.464800 9.746000 8.696000 21.385000 # H MOL
173 1 2 0.464800 9.255000 9.476000 22.878000 # H MOL
174 1 2 0.464800 7.689000 11.054000 19.502001 # H MOL
175 1 2 0.464800 0.094000 19.684000 -0.491000 # H MOL
176 1 2 0.464800 1.085000 18.697001 1.629000 # H MOL
177 1 2 0.464800 0.594000 19.476999 3.122000 # H MOL
178 1 2 0.464800 -0.972000 21.055000 -0.254000 # H MOL
179 1 2 0.464800 4.425000 17.183001 3.460000 # H MOL
180 1 2 0.464800 5.416000 16.195999 5.580000 # H MOL
181 1 2 0.464800 4.925000 16.976000 7.073000 # H MOL
182 1 2 0.464800 3.359000 18.554001 3.697000 # H MOL
183 1 2 0.464800 0.094000 19.684000 7.411000 # H MOL
184 1 2 0.464800 1.085000 18.697001 9.531000 # H MOL
185 1 2 0.464800 0.594000 19.476999 11.024000 # H MOL
186 1 2 0.464800 -0.972000 21.055000 7.648000 # H MOL
187 1 2 0.464800 4.425000 17.183001 11.362000 # H MOL
188 1 2 0.464800 5.416000 16.195999 13.482000 # H MOL
189 1 2 0.464800 4.925000 16.976000 14.975000 # H MOL
190 1 2 0.464800 3.359000 18.554001 11.599000 # H MOL
191 1 2 0.464800 0.094000 19.684000 15.313000 # H MOL
192 1 2 0.464800 1.085000 18.697001 17.433001 # H MOL
193 1 2 0.464800 0.594000 19.476999 18.926001 # H MOL
194 1 2 0.464800 -0.972000 21.055000 15.550000 # H MOL
195 1 2 0.464800 4.425000 17.183001 19.264999 # H MOL
196 1 2 0.464800 5.416000 16.195999 21.385000 # H MOL
197 1 2 0.464800 4.925000 16.976000 22.878000 # H MOL
198 1 2 0.464800 3.359000 18.554001 19.502001 # H MOL
199 1 2 0.464800 17.414000 4.684000 -0.491000 # H MOL
200 1 2 0.464800 18.405001 3.697000 1.629000 # H MOL
201 1 2 0.464800 17.914000 4.477000 3.122000 # H MOL
202 1 2 0.464800 16.348000 6.055000 -0.254000 # H MOL
203 1 2 0.464800 21.745001 2.183000 3.460000 # H MOL
204 1 2 0.464800 22.736000 1.196000 5.580000 # H MOL
205 1 2 0.464800 22.245001 1.976000 7.073000 # H MOL
206 1 2 0.464800 20.679001 3.554000 3.697000 # H MOL
207 1 2 0.464800 17.414000 4.684000 7.411000 # H MOL
208 1 2 0.464800 18.405001 3.697000 9.531000 # H MOL
209 1 2 0.464800 17.914000 4.477000 11.024000 # H MOL
210 1 2 0.464800 16.348000 6.055000 7.648000 # H MOL
211 1 2 0.464800 21.745001 2.183000 11.362000 # H MOL
212 1 2 0.464800 22.736000 1.196000 13.482000 # H MOL
213 1 2 0.464800 22.245001 1.976000 14.975000 # H MOL
214 1 2 0.464800 20.679001 3.554000 11.599000 # H MOL
215 1 2 0.464800 17.414000 4.684000 15.313000 # H MOL
216 1 2 0.464800 18.405001 3.697000 17.433001 # H MOL
217 1 2 0.464800 17.914000 4.477000 18.926001 # H MOL
218 1 2 0.464800 16.348000 6.055000 15.550000 # H MOL
219 1 2 0.464800 21.745001 2.183000 19.264999 # H MOL
220 1 2 0.464800 22.736000 1.196000 21.385000 # H MOL
221 1 2 0.464800 22.245001 1.976000 22.878000 # H MOL
222 1 2 0.464800 20.679001 3.554000 19.502001 # H MOL
223 1 2 0.464800 13.084000 12.184000 -0.491000 # H MOL
224 1 2 0.464800 14.075000 11.197000 1.629000 # H MOL
225 1 2 0.464800 13.584000 11.977000 3.122000 # H MOL
226 1 2 0.464800 12.018000 13.555000 -0.254000 # H MOL
227 1 2 0.464800 17.415001 9.683000 3.460000 # H MOL
228 1 2 0.464800 18.406000 8.696000 5.580000 # H MOL
229 1 2 0.464800 17.915001 9.476000 7.073000 # H MOL
230 1 2 0.464800 16.349001 11.054000 3.697000 # H MOL
231 1 2 0.464800 13.084000 12.184000 7.411000 # H MOL
232 1 2 0.464800 14.075000 11.197000 9.531000 # H MOL
233 1 2 0.464800 13.584000 11.977000 11.024000 # H MOL
234 1 2 0.464800 12.018000 13.555000 7.648000 # H MOL
235 1 2 0.464800 17.415001 9.683000 11.362000 # H MOL
236 1 2 0.464800 18.406000 8.696000 13.482000 # H MOL
237 1 2 0.464800 17.915001 9.476000 14.975000 # H MOL
238 1 2 0.464800 16.349001 11.054000 11.599000 # H MOL
239 1 2 0.464800 13.084000 12.184000 15.313000 # H MOL
240 1 2 0.464800 14.075000 11.197000 17.433001 # H MOL
241 1 2 0.464800 13.584000 11.977000 18.926001 # H MOL
242 1 2 0.464800 12.018000 13.555000 15.550000 # H MOL
243 1 2 0.464800 17.415001 9.683000 19.264999 # H MOL
244 1 2 0.464800 18.406000 8.696000 21.385000 # H MOL
245 1 2 0.464800 17.915001 9.476000 22.878000 # H MOL
246 1 2 0.464800 16.349001 11.054000 19.502001 # H MOL
247 1 2 0.464800 8.754000 19.684000 -0.491000 # H MOL
248 1 2 0.464800 9.745000 18.697001 1.629000 # H MOL
249 1 2 0.464800 9.254000 19.476999 3.122000 # H MOL
250 1 2 0.464800 7.688000 21.055000 -0.254000 # H MOL
251 1 2 0.464800 13.085000 17.183001 3.460000 # H MOL
252 1 2 0.464800 14.076000 16.195999 5.580000 # H MOL
253 1 2 0.464800 13.585000 16.976000 7.073000 # H MOL
254 1 2 0.464800 12.019000 18.554001 3.697000 # H MOL
255 1 2 0.464800 8.754000 19.684000 7.411000 # H MOL
256 1 2 0.464800 9.745000 18.697001 9.531000 # H MOL
257 1 2 0.464800 9.254000 19.476999 11.024000 # H MOL
258 1 2 0.464800 7.688000 21.055000 7.648000 # H MOL
259 1 2 0.464800 13.085000 17.183001 11.362000 # H MOL
260 1 2 0.464800 14.076000 16.195999 13.482000 # H MOL
261 1 2 0.464800 13.585000 16.976000 14.975000 # H MOL
262 1 2 0.464800 12.019000 18.554001 11.599000 # H MOL
263 1 2 0.464800 8.754000 19.684000 15.313000 # H MOL
264 1 2 0.464800 9.745000 18.697001 17.433001 # H MOL
265 1 2 0.464800 9.254000 19.476999 18.926001 # H MOL
266 1 2 0.464800 7.688000 21.055000 15.550000 # H MOL
267 1 2 0.464800 13.085000 17.183001 19.264999 # H MOL
268 1 2 0.464800 14.076000 16.195999 21.385000 # H MOL
269 1 2 0.464800 13.585000 16.976000 22.878000 # H MOL
270 1 2 0.464800 12.019000 18.554001 19.502001 # H MOL
271 1 3 0.222500 -0.752000 6.036000 2.058000 # He MOL
272 1 3 0.222500 3.579000 3.535000 6.009000 # He MOL
273 1 3 0.222500 -0.752000 6.036000 9.960000 # He MOL
274 1 3 0.222500 3.579000 3.535000 13.911000 # He MOL
275 1 3 0.222500 -0.752000 6.036000 17.862000 # He MOL
276 1 3 0.222500 3.579000 3.535000 21.813999 # He MOL
277 1 3 0.222500 -5.082000 13.536000 2.058000 # He MOL
278 1 3 0.222500 -0.751000 11.035000 6.009000 # He MOL
279 1 3 0.222500 -5.082000 13.536000 9.960000 # He MOL
280 1 3 0.222500 -0.751000 11.035000 13.911000 # He MOL
281 1 3 0.222500 -5.082000 13.536000 17.862000 # He MOL
282 1 3 0.222500 -0.751000 11.035000 21.813999 # He MOL
283 1 3 0.222500 -9.413000 21.035999 2.058000 # He MOL
284 1 3 0.222500 -5.082000 18.535000 6.009000 # He MOL
285 1 3 0.222500 -9.413000 21.035999 9.960000 # He MOL
286 1 3 0.222500 -5.082000 18.535000 13.911000 # He MOL
287 1 3 0.222500 -9.413000 21.035999 17.862000 # He MOL
288 1 3 0.222500 -5.082000 18.535000 21.813999 # He MOL
289 1 3 0.222500 7.908000 6.036000 2.058000 # He MOL
290 1 3 0.222500 12.239000 3.535000 6.009000 # He MOL
291 1 3 0.222500 7.908000 6.036000 9.960000 # He MOL
292 1 3 0.222500 12.239000 3.535000 13.911000 # He MOL
293 1 3 0.222500 7.908000 6.036000 17.862000 # He MOL
294 1 3 0.222500 12.239000 3.535000 21.813999 # He MOL
295 1 3 0.222500 3.578000 13.536000 2.058000 # He MOL
296 1 3 0.222500 7.909000 11.035000 6.009000 # He MOL
297 1 3 0.222500 3.578000 13.536000 9.960000 # He MOL
298 1 3 0.222500 7.909000 11.035000 13.911000 # He MOL
299 1 3 0.222500 3.578000 13.536000 17.862000 # He MOL
300 1 3 0.222500 7.909000 11.035000 21.813999 # He MOL
301 1 3 0.222500 -0.752000 21.035999 2.058000 # He MOL
302 1 3 0.222500 3.579000 18.535000 6.009000 # He MOL
303 1 3 0.222500 -0.752000 21.035999 9.960000 # He MOL
304 1 3 0.222500 3.579000 18.535000 13.911000 # He MOL
305 1 3 0.222500 -0.752000 21.035999 17.862000 # He MOL
306 1 3 0.222500 3.579000 18.535000 21.813999 # He MOL
307 1 3 0.222500 16.568001 6.036000 2.058000 # He MOL
308 1 3 0.222500 20.899000 3.535000 6.009000 # He MOL
309 1 3 0.222500 16.568001 6.036000 9.960000 # He MOL
310 1 3 0.222500 20.899000 3.535000 13.911000 # He MOL
311 1 3 0.222500 16.568001 6.036000 17.862000 # He MOL
312 1 3 0.222500 20.899000 3.535000 21.813999 # He MOL
313 1 3 0.222500 12.238000 13.536000 2.058000 # He MOL
314 1 3 0.222500 16.569000 11.035000 6.009000 # He MOL
315 1 3 0.222500 12.238000 13.536000 9.960000 # He MOL
316 1 3 0.222500 16.569000 11.035000 13.911000 # He MOL
317 1 3 0.222500 12.238000 13.536000 17.862000 # He MOL
318 1 3 0.222500 16.569000 11.035000 21.813999 # He MOL
319 1 3 0.222500 7.908000 21.035999 2.058000 # He MOL
320 1 3 0.222500 12.239000 18.535000 6.009000 # He MOL
321 1 3 0.222500 7.908000 21.035999 9.960000 # He MOL
322 1 3 0.222500 12.239000 18.535000 13.911000 # He MOL
323 1 3 0.222500 7.908000 21.035999 17.862000 # He MOL
324 1 3 0.222500 12.239000 18.535000 21.813999 # He MOL
325 1 4 -1.000000 6.467000 1.266000 1.983000 # I MOL
326 1 4 -1.000000 4.330000 4.968000 1.983000 # I MOL
327 1 4 -1.000000 2.193000 1.266000 1.983000 # I MOL
328 1 4 -1.000000 -2.137000 6.234000 5.935000 # I MOL
329 1 4 -1.000000 0.000000 2.532000 5.935000 # I MOL
330 1 4 -1.000000 2.137000 6.234000 5.935000 # I MOL
331 1 4 -1.000000 6.467000 1.266000 9.886000 # I MOL
332 1 4 -1.000000 4.330000 4.968000 9.886000 # I MOL
333 1 4 -1.000000 2.193000 1.266000 9.886000 # I MOL
334 1 4 -1.000000 -2.137000 6.234000 13.837000 # I MOL
335 1 4 -1.000000 0.000000 2.532000 13.837000 # I MOL
336 1 4 -1.000000 2.137000 6.234000 13.837000 # I MOL
337 1 4 -1.000000 6.467000 1.266000 17.788000 # I MOL
338 1 4 -1.000000 4.330000 4.968000 17.788000 # I MOL
339 1 4 -1.000000 2.193000 1.266000 17.788000 # I MOL
340 1 4 -1.000000 -2.137000 6.234000 21.739000 # I MOL
341 1 4 -1.000000 0.000000 2.532000 21.739000 # I MOL
342 1 4 -1.000000 2.137000 6.234000 21.739000 # I MOL
343 1 4 -1.000000 2.137000 8.766000 1.983000 # I MOL
344 1 4 -1.000000 0.000000 12.468000 1.983000 # I MOL
345 1 4 -1.000000 -2.137000 8.766000 1.983000 # I MOL
346 1 4 -1.000000 -6.467000 13.734000 5.935000 # I MOL
347 1 4 -1.000000 -4.330000 10.033000 5.935000 # I MOL
348 1 4 -1.000000 -2.193000 13.734000 5.935000 # I MOL
349 1 4 -1.000000 2.137000 8.766000 9.886000 # I MOL
350 1 4 -1.000000 0.000000 12.468000 9.886000 # I MOL
351 1 4 -1.000000 -2.137000 8.766000 9.886000 # I MOL
352 1 4 -1.000000 -6.467000 13.734000 13.837000 # I MOL
353 1 4 -1.000000 -4.330000 10.033000 13.837000 # I MOL
354 1 4 -1.000000 -2.193000 13.734000 13.837000 # I MOL
355 1 4 -1.000000 2.137000 8.766000 17.788000 # I MOL
356 1 4 -1.000000 0.000000 12.468000 17.788000 # I MOL
357 1 4 -1.000000 -2.137000 8.766000 17.788000 # I MOL
358 1 4 -1.000000 -6.467000 13.734000 21.739000 # I MOL
359 1 4 -1.000000 -4.330000 10.033000 21.739000 # I MOL
360 1 4 -1.000000 -2.193000 13.734000 21.739000 # I MOL
361 1 4 -1.000000 -2.193000 16.266001 1.983000 # I MOL
362 1 4 -1.000000 -4.330000 19.968000 1.983000 # I MOL
363 1 4 -1.000000 -6.467000 16.266001 1.983000 # I MOL
364 1 4 -1.000000 -10.797000 21.233999 5.935000 # I MOL
365 1 4 -1.000000 -8.660000 17.533001 5.935000 # I MOL
366 1 4 -1.000000 -6.523000 21.233999 5.935000 # I MOL
367 1 4 -1.000000 -2.193000 16.266001 9.886000 # I MOL
368 1 4 -1.000000 -4.330000 19.968000 9.886000 # I MOL
369 1 4 -1.000000 -6.467000 16.266001 9.886000 # I MOL
370 1 4 -1.000000 -10.797000 21.233999 13.837000 # I MOL
371 1 4 -1.000000 -8.660000 17.533001 13.837000 # I MOL
372 1 4 -1.000000 -6.523000 21.233999 13.837000 # I MOL
373 1 4 -1.000000 -2.193000 16.266001 17.788000 # I MOL
374 1 4 -1.000000 -4.330000 19.968000 17.788000 # I MOL
375 1 4 -1.000000 -6.467000 16.266001 17.788000 # I MOL
376 1 4 -1.000000 -10.797000 21.233999 21.739000 # I MOL
377 1 4 -1.000000 -8.660000 17.533001 21.739000 # I MOL
378 1 4 -1.000000 -6.523000 21.233999 21.739000 # I MOL
379 1 4 -1.000000 15.127000 1.266000 1.983000 # I MOL
380 1 4 -1.000000 12.990000 4.968000 1.983000 # I MOL
381 1 4 -1.000000 10.853000 1.266000 1.983000 # I MOL
382 1 4 -1.000000 6.523000 6.234000 5.935000 # I MOL
383 1 4 -1.000000 8.660000 2.532000 5.935000 # I MOL
384 1 4 -1.000000 10.797000 6.234000 5.935000 # I MOL
385 1 4 -1.000000 15.127000 1.266000 9.886000 # I MOL
386 1 4 -1.000000 12.990000 4.968000 9.886000 # I MOL
387 1 4 -1.000000 10.853000 1.266000 9.886000 # I MOL
388 1 4 -1.000000 6.523000 6.234000 13.837000 # I MOL
389 1 4 -1.000000 8.660000 2.532000 13.837000 # I MOL
390 1 4 -1.000000 10.797000 6.234000 13.837000 # I MOL
391 1 4 -1.000000 15.127000 1.266000 17.788000 # I MOL
392 1 4 -1.000000 12.990000 4.968000 17.788000 # I MOL
393 1 4 -1.000000 10.853000 1.266000 17.788000 # I MOL
394 1 4 -1.000000 6.523000 6.234000 21.739000 # I MOL
395 1 4 -1.000000 8.660000 2.532000 21.739000 # I MOL
396 1 4 -1.000000 10.797000 6.234000 21.739000 # I MOL
397 1 4 -1.000000 10.797000 8.766000 1.983000 # I MOL
398 1 4 -1.000000 8.660000 12.468000 1.983000 # I MOL
399 1 4 -1.000000 6.523000 8.766000 1.983000 # I MOL
400 1 4 -1.000000 2.193000 13.734000 5.935000 # I MOL
401 1 4 -1.000000 4.330000 10.033000 5.935000 # I MOL
402 1 4 -1.000000 6.467000 13.734000 5.935000 # I MOL
403 1 4 -1.000000 10.797000 8.766000 9.886000 # I MOL
404 1 4 -1.000000 8.660000 12.468000 9.886000 # I MOL
405 1 4 -1.000000 6.523000 8.766000 9.886000 # I MOL
406 1 4 -1.000000 2.193000 13.734000 13.837000 # I MOL
407 1 4 -1.000000 4.330000 10.033000 13.837000 # I MOL
408 1 4 -1.000000 6.467000 13.734000 13.837000 # I MOL
409 1 4 -1.000000 10.797000 8.766000 17.788000 # I MOL
410 1 4 -1.000000 8.660000 12.468000 17.788000 # I MOL
411 1 4 -1.000000 6.523000 8.766000 17.788000 # I MOL
412 1 4 -1.000000 2.193000 13.734000 21.739000 # I MOL
413 1 4 -1.000000 4.330000 10.033000 21.739000 # I MOL
414 1 4 -1.000000 6.467000 13.734000 21.739000 # I MOL
415 1 4 -1.000000 6.467000 16.266001 1.983000 # I MOL
416 1 4 -1.000000 4.330000 19.968000 1.983000 # I MOL
417 1 4 -1.000000 2.193000 16.266001 1.983000 # I MOL
418 1 4 -1.000000 -2.137000 21.233999 5.935000 # I MOL
419 1 4 -1.000000 0.000000 17.533001 5.935000 # I MOL
420 1 4 -1.000000 2.137000 21.233999 5.935000 # I MOL
421 1 4 -1.000000 6.467000 16.266001 9.886000 # I MOL
422 1 4 -1.000000 4.330000 19.968000 9.886000 # I MOL
423 1 4 -1.000000 2.193000 16.266001 9.886000 # I MOL
424 1 4 -1.000000 -2.137000 21.233999 13.837000 # I MOL
425 1 4 -1.000000 0.000000 17.533001 13.837000 # I MOL
426 1 4 -1.000000 2.137000 21.233999 13.837000 # I MOL
427 1 4 -1.000000 6.467000 16.266001 17.788000 # I MOL
428 1 4 -1.000000 4.330000 19.968000 17.788000 # I MOL
429 1 4 -1.000000 2.193000 16.266001 17.788000 # I MOL
430 1 4 -1.000000 -2.137000 21.233999 21.739000 # I MOL
431 1 4 -1.000000 0.000000 17.533001 21.739000 # I MOL
432 1 4 -1.000000 2.137000 21.233999 21.739000 # I MOL
433 1 4 -1.000000 23.788000 1.266000 1.983000 # I MOL
434 1 4 -1.000000 21.650999 4.968000 1.983000 # I MOL
435 1 4 -1.000000 19.514000 1.266000 1.983000 # I MOL
436 1 4 -1.000000 15.184000 6.234000 5.935000 # I MOL
437 1 4 -1.000000 17.320999 2.532000 5.935000 # I MOL
438 1 4 -1.000000 19.458000 6.234000 5.935000 # I MOL
439 1 4 -1.000000 23.788000 1.266000 9.886000 # I MOL
440 1 4 -1.000000 21.650999 4.968000 9.886000 # I MOL
441 1 4 -1.000000 19.514000 1.266000 9.886000 # I MOL
442 1 4 -1.000000 15.184000 6.234000 13.837000 # I MOL
443 1 4 -1.000000 17.320999 2.532000 13.837000 # I MOL
444 1 4 -1.000000 19.458000 6.234000 13.837000 # I MOL
445 1 4 -1.000000 23.788000 1.266000 17.788000 # I MOL
446 1 4 -1.000000 21.650999 4.968000 17.788000 # I MOL
447 1 4 -1.000000 19.514000 1.266000 17.788000 # I MOL
448 1 4 -1.000000 15.184000 6.234000 21.739000 # I MOL
449 1 4 -1.000000 17.320999 2.532000 21.739000 # I MOL
450 1 4 -1.000000 19.458000 6.234000 21.739000 # I MOL
451 1 4 -1.000000 19.458000 8.766000 1.983000 # I MOL
452 1 4 -1.000000 17.320999 12.468000 1.983000 # I MOL
453 1 4 -1.000000 15.184000 8.766000 1.983000 # I MOL
454 1 4 -1.000000 10.853000 13.734000 5.935000 # I MOL
455 1 4 -1.000000 12.990000 10.033000 5.935000 # I MOL
456 1 4 -1.000000 15.127000 13.734000 5.935000 # I MOL
457 1 4 -1.000000 19.458000 8.766000 9.886000 # I MOL
458 1 4 -1.000000 17.320999 12.468000 9.886000 # I MOL
459 1 4 -1.000000 15.184000 8.766000 9.886000 # I MOL
460 1 4 -1.000000 10.853000 13.734000 13.837000 # I MOL
461 1 4 -1.000000 12.990000 10.033000 13.837000 # I MOL
462 1 4 -1.000000 15.127000 13.734000 13.837000 # I MOL
463 1 4 -1.000000 19.458000 8.766000 17.788000 # I MOL
464 1 4 -1.000000 17.320999 12.468000 17.788000 # I MOL
465 1 4 -1.000000 15.184000 8.766000 17.788000 # I MOL
466 1 4 -1.000000 10.853000 13.734000 21.739000 # I MOL
467 1 4 -1.000000 12.990000 10.033000 21.739000 # I MOL
468 1 4 -1.000000 15.127000 13.734000 21.739000 # I MOL
469 1 4 -1.000000 15.127000 16.266001 1.983000 # I MOL
470 1 4 -1.000000 12.990000 19.968000 1.983000 # I MOL
471 1 4 -1.000000 10.853000 16.266001 1.983000 # I MOL
472 1 4 -1.000000 6.523000 21.233999 5.935000 # I MOL
473 1 4 -1.000000 8.660000 17.533001 5.935000 # I MOL
474 1 4 -1.000000 10.797000 21.233999 5.935000 # I MOL
475 1 4 -1.000000 15.127000 16.266001 9.886000 # I MOL
476 1 4 -1.000000 12.990000 19.968000 9.886000 # I MOL
477 1 4 -1.000000 10.853000 16.266001 9.886000 # I MOL
478 1 4 -1.000000 6.523000 21.233999 13.837000 # I MOL
479 1 4 -1.000000 8.660000 17.533001 13.837000 # I MOL
480 1 4 -1.000000 10.797000 21.233999 13.837000 # I MOL
481 1 4 -1.000000 15.127000 16.266001 17.788000 # I MOL
482 1 4 -1.000000 12.990000 19.968000 17.788000 # I MOL
483 1 4 -1.000000 10.853000 16.266001 17.788000 # I MOL
484 1 4 -1.000000 6.523000 21.233999 21.739000 # I MOL
485 1 4 -1.000000 8.660000 17.533001 21.739000 # I MOL
486 1 4 -1.000000 10.797000 21.233999 21.739000 # I MOL
487 1 5 -0.824500 0.555000 4.440000 2.094000 # N MOL
488 1 5 -0.824500 -0.380000 5.318000 0.160000 # N MOL
489 1 5 -0.824500 4.886000 1.939000 6.045000 # N MOL
490 1 5 -0.824500 3.951000 2.817000 4.111000 # N MOL
491 1 5 -0.824500 0.555000 4.440000 9.996000 # N MOL
492 1 5 -0.824500 -0.380000 5.318000 8.062000 # N MOL
493 1 5 -0.824500 4.886000 1.939000 13.947000 # N MOL
494 1 5 -0.824500 3.951000 2.817000 12.013000 # N MOL
495 1 5 -0.824500 0.555000 4.440000 17.898001 # N MOL
496 1 5 -0.824500 -0.380000 5.318000 15.964000 # N MOL
497 1 5 -0.824500 4.886000 1.939000 21.850000 # N MOL
498 1 5 -0.824500 3.951000 2.817000 19.916000 # N MOL
499 1 5 -0.824500 -3.775000 11.940000 2.094000 # N MOL
500 1 5 -0.824500 -4.710000 12.818000 0.160000 # N MOL
501 1 5 -0.824500 0.556000 9.439000 6.045000 # N MOL
502 1 5 -0.824500 -0.379000 10.317000 4.111000 # N MOL
503 1 5 -0.824500 -3.775000 11.940000 9.996000 # N MOL
504 1 5 -0.824500 -4.710000 12.818000 8.062000 # N MOL
505 1 5 -0.824500 0.556000 9.439000 13.947000 # N MOL
506 1 5 -0.824500 -0.379000 10.317000 12.013000 # N MOL
507 1 5 -0.824500 -3.775000 11.940000 17.898001 # N MOL
508 1 5 -0.824500 -4.710000 12.818000 15.964000 # N MOL
509 1 5 -0.824500 0.556000 9.439000 21.850000 # N MOL
510 1 5 -0.824500 -0.379000 10.317000 19.916000 # N MOL
511 1 5 -0.824500 -8.106000 19.440001 2.094000 # N MOL
512 1 5 -0.824500 -9.041000 20.318001 0.160000 # N MOL
513 1 5 -0.824500 -3.775000 16.938999 6.045000 # N MOL
514 1 5 -0.824500 -4.710000 17.816999 4.111000 # N MOL
515 1 5 -0.824500 -8.106000 19.440001 9.996000 # N MOL
516 1 5 -0.824500 -9.041000 20.318001 8.062000 # N MOL
517 1 5 -0.824500 -3.775000 16.938999 13.947000 # N MOL
518 1 5 -0.824500 -4.710000 17.816999 12.013000 # N MOL
519 1 5 -0.824500 -8.106000 19.440001 17.898001 # N MOL
520 1 5 -0.824500 -9.041000 20.318001 15.964000 # N MOL
521 1 5 -0.824500 -3.775000 16.938999 21.850000 # N MOL
522 1 5 -0.824500 -4.710000 17.816999 19.916000 # N MOL
523 1 5 -0.824500 9.215000 4.440000 2.094000 # N MOL
524 1 5 -0.824500 8.280000 5.318000 0.160000 # N MOL
525 1 5 -0.824500 13.546000 1.939000 6.045000 # N MOL
526 1 5 -0.824500 12.611000 2.817000 4.111000 # N MOL
527 1 5 -0.824500 9.215000 4.440000 9.996000 # N MOL
528 1 5 -0.824500 8.280000 5.318000 8.062000 # N MOL
529 1 5 -0.824500 13.546000 1.939000 13.947000 # N MOL
530 1 5 -0.824500 12.611000 2.817000 12.013000 # N MOL
531 1 5 -0.824500 9.215000 4.440000 17.898001 # N MOL
532 1 5 -0.824500 8.280000 5.318000 15.964000 # N MOL
533 1 5 -0.824500 13.546000 1.939000 21.850000 # N MOL
534 1 5 -0.824500 12.611000 2.817000 19.916000 # N MOL
535 1 5 -0.824500 4.885000 11.940000 2.094000 # N MOL
536 1 5 -0.824500 3.950000 12.818000 0.160000 # N MOL
537 1 5 -0.824500 9.216000 9.439000 6.045000 # N MOL
538 1 5 -0.824500 8.281000 10.317000 4.111000 # N MOL
539 1 5 -0.824500 4.885000 11.940000 9.996000 # N MOL
540 1 5 -0.824500 3.950000 12.818000 8.062000 # N MOL
541 1 5 -0.824500 9.216000 9.439000 13.947000 # N MOL