LAMMPS data file via write_data, version 23 Jun 2022, timestep = 10028

648 atoms
6 atom types
378 bonds
3 bond types
486 angles
4 angle types
432 dihedrals
2 dihedral types
162 impropers
2 improper types

-6.495001 19.486 xlo xhi
-0.653104 21.847103 ylo yhi
-0.901 22.806001 zlo zhi
-12.9905 0 0 xy xz yz

Masses

1 12.01
2 1.008
3 1.008
4 126.900002
5 14.01
6 207.199997

Bond Coeffs # harmonic

1 340.4 1.08
2 448 1.365
3 434 1.01

Angle Coeffs # harmonic

1 35 120
2 35 113
3 35 119.1
4 70 120

Dihedral Coeffs # opls

1 0 3.9 0 0
2 0 3.9 0 0

Improper Coeffs # cvff

1 2.5 -1 2
2 2.5 -1 2

Atoms # full

473 1 4 -1 -17.28735203304825 18.151216358825195 5.083878745883199 1 0 0
247 1 2 0.4648 8.096849519395457 19.041076257206086 0.7536360161822828 0 0 0
223 1 2 0.4648 -13.663928947303353 11.917867385514313 0.8342049271301373 1 0 0
239 1 2 0.4648 -13.095214369841607 13.01554092296516 15.87176419390904 1 0 0
1 1 1 0.5671 1.069766019725467 5.505929739869861 1.34213343352734 0 0 0
2 1 1 0.5671 4.152101104695218 3.7055432291530153 5.488316585020551 0 0 0
3 1 1 0.5671 -0.7351668625770094 5.3727172578075955 8.902943087860246 0 0 0
4 1 1 0.5671 4.414478550674067 2.6311576095686258 13.593187116115939 0 0 0
5 1 1 0.5671 -0.062027902682835645 4.167807090479235 17.237463666788262 0 0 0
6 1 1 0.5671 4.332876214109989 2.563868536642235 21.454109579174595 0 0 0
7 1 1 0.5671 -4.1904023836510955 12.511545460941827 1.500031806564876 0 0 0
8 1 1 0.5671 -0.6315105424298642 11.153413950251547 5.34342572458453 0 0 0
9 1 1 0.5671 -5.237326217280914 13.160938064985631 9.495676242744883 0 0 0
10 1 1 0.5671 -0.7433677500603171 9.864355106004883 13.188012140526034 0 0 0
11 1 1 0.5671 -4.299483491453601 11.346858389875795 17.427413822708374 0 0 0
12 1 1 0.5671 0.7488309146488428 9.945612000508797 21.777843106247463 0 0 0
13 1 1 0.5671 -8.334197777921188 20.425699290791723 0.9671168746910523 0 0 0
14 1 1 0.5671 -4.908436275801421 18.581948085659413 5.3170218969871925 0 0 0
15 1 1 0.5671 -9.628804718373464 20.677442271912565 9.301142146581217 0 0 0
16 1 1 0.5671 -5.144950603614685 16.912237803283816 13.6860060666653 0 0 0
17 1 1 0.5671 -9.13314272549053 19.92102701272984 17.75865504475317 0 0 0
18 1 1 0.5671 -3.6150009739328794 17.07060978573773 21.414858314882746 0 0 0
19 1 1 0.5671 9.108764422166015 5.746753352524 1.649257018396814 0 0 0
20 1 1 0.5671 13.0407798372935 3.2480323765201957 5.676166109349148 0 0 0
21 1 1 0.5671 7.862555393900466 5.646096597432957 8.867833645918044 0 0 0
22 1 1 0.5671 11.815308324790129 2.1252808612534055 13.471847488081496 0 0 0
23 1 1 0.5671 8.54962309980254 4.147840248471743 17.434476434587356 0 0 0
24 1 1 0.5671 13.905512364249466 1.9686876189987252 21.29959612514588 0 0 0
25 1 1 0.5671 4.466242301588922 12.659512287549662 1.5821851914354335 0 0 0
26 1 1 0.5671 8.516219237426249 11.040056461418267 5.150526883569954 0 0 0
27 1 1 0.5671 3.5505076479458353 13.351086265196468 9.183585616909152 0 0 0
28 1 1 0.5671 8.692278544464928 10.257754332919266 13.392802125678937 0 0 0
29 1 1 0.5671 4.476311996334877 11.78710969839765 17.55155265009962 0 0 0
30 1 1 0.5671 9.436974918701546 9.89459975348887 21.45233084299965 0 0 0
31 1 1 0.5671 -0.018827248114554607 20.152191351142804 1.5808489395525636 0 0 0
32 1 1 0.5671 4.449276539307389 18.71324932502874 5.498821422778477 0 0 0
33 1 1 0.5671 -1.1374834061526506 20.357966190939536 9.118960960263564 0 0 0
34 1 1 0.5671 3.4556103404883274 17.273520408284927 13.285867262399258 0 0 0
35 1 1 0.5671 -0.13367243843493704 19.10425270715717 17.402334123944804 0 0 0
36 1 1 0.5671 4.133738415755211 17.287308819020353 21.104691824598916 0 0 0
37 1 1 0.5671 -8.772027532311768 4.852649818838692 1.4344556466342648 1 0 0
38 1 1 0.5671 -4.520200541643401 3.402364508784249 5.459854558575113 1 0 0
39 1 1 0.5671 -9.39029484323089 5.318195760525729 9.34978288762942 1 0 0
40 1 1 0.5671 -4.605721589923695 2.0920409392737485 13.345080886041586 1 0 0
41 1 1 0.5671 -8.431489794119381 4.109015372146613 17.661932893172413 1 0 0
42 1 1 0.5671 -4.30658185164302 2.4402535235504605 21.189903095342476 1 0 0
43 1 1 0.5671 -12.349138255816335 13.317487150748617 1.5974781560047095 1 0 0
44 1 1 0.5671 -8.611389074933488 10.979681190641685 5.892740197511007 1 0 0
45 1 1 0.5671 -13.74474974834643 12.64108447302335 9.380699093669696 1 0 0
46 1 1 0.5671 -8.182432033848105 10.004093531382976 13.5676192897458 1 0 0
47 1 1 0.5671 -13.184367603326285 11.519759095126581 17.30851929674677 1 0 0
48 1 1 0.5671 -8.158148888434795 9.414359870894456 21.463787592904524 1 0 0
49 1 1 0.5671 -16.778249516241047 20.744279536930357 1.191314606128924 1 0 0
50 1 1 0.5671 -13.0309274431332 18.748256250245724 5.453626910934674 1 0 0
51 1 1 0.5671 -17.268423936226796 20.19488891993223 9.010676932070572 1 0 0
52 1 1 0.5671 -13.734279668012869 16.997195925994397 13.61981180466675 1 0 0
53 1 1 0.5671 -17.598471375079534 20.23903743554543 17.40398607749298 1 0 0
54 1 1 0.5671 -13.16504203464419 17.313866598940535 21.174012187309174 1 0 0
55 1 2 0.4648 -0.8100219060533256 5.101352103854026 0.7184736500457423 0 0 0
56 1 2 0.4648 -0.4812500410912719 5.810846305648758 2.7123677692146417 0 0 0
57 1 2 0.4648 1.0190916156615977 6.176609892592368 3.2452137264710883 0 0 0
58 1 2 0.4648 0.43978326731332906 4.860619541549709 -0.4786297723334888 0 0 0
59 1 2 0.4648 4.880731041046893 2.0371201041592966 4.442527032533529 0 0 0
60 1 2 0.4648 3.9709986641240285 1.892262317947135 6.496849758032736 0 0 0
61 1 2 0.4648 4.036300916809703 3.3126472247434 7.480943511733514 0 0 0
62 1 2 0.4648 4.677834241721403 3.3942529498355594 3.4935245779706063 0 0 0
63 1 2 0.4648 1.2155906769752818 5.47388063090305 8.552201163575605 0 0 0
64 1 2 0.4648 0.5337256180151613 5.020222002147153 10.605922704693855 0 0 0
65 1 2 0.4648 -1.1315830411632923 4.978053265487393 10.92396530202401 0 0 0
66 1 2 0.4648 0.3186501729081943 5.558787380457929 7.088882290678881 0 0 0
67 1 2 0.4648 2.959531051642843 2.4858962828104447 12.256820964916944 0 0 0
68 1 2 0.4648 2.6125060447477377 1.8612976152835201 14.296646058764653 0 0 0
69 1 2 0.4648 3.765444028402575 2.2639365783322 15.52656394540627 0 0 0
70 1 2 0.4648 4.382064518673483 3.0613889175288036 11.625724388532221 0 0 0
71 1 2 0.4648 -0.12287754277261786 5.663251304245167 15.879362345052524 0 0 0
72 1 2 0.4648 0.3738501129308176 5.992586288007137 17.86403504330904 0 0 0
73 1 2 0.4648 0.27027961332732 4.956642872058925 19.167448457915356 0 0 0
74 1 2 0.4648 -0.28915531988074683 4.1591638467832235 15.151755231480518 0 0 0
75 1 2 0.4648 4.761648309509221 1.591744826112353 19.591222267990478 0 0 0
76 1 2 0.4648 5.615812808311976 0.9123034108467297 21.4921653575912 0 0 0
77 1 2 0.4648 5.49804154048717 1.7789225811746014 -0.7818058800601754 0 0 1
78 1 2 0.4648 3.5383912493018084 2.661489875547101 19.563002193523893 0 0 0
79 1 2 0.4648 -3.471357074670715 13.199875294198657 -0.26337344861792744 0 0 0
80 1 2 0.4648 -3.194414898213518 14.355521798892894 1.6443611026080902 0 0 0
81 1 2 0.4648 -3.3517839585539484 13.605560252490823 3.0936525516177165 0 0 0
82 1 2 0.4648 -4.483459671379476 11.872854261318148 -0.4104416867269099 0 0 0
83 1 2 0.4648 0.15419886558970575 9.50160946934621 4.493025313868645 0 0 0
84 1 2 0.4648 -0.07152090571829905 9.597868907462463 6.643175842326109 0 0 0
85 1 2 0.4648 -0.5486482700816291 10.991585731829064 7.402720919366292 0 0 0
86 1 2 0.4648 -0.20558204224336674 10.769226531245002 3.4024860303084488 0 0 0
87 1 2 0.4648 -3.449962770924458 12.97005593766206 8.482882822104635 0 0 0
88 1 2 0.4648 -3.67457283818681 12.103731194549033 10.413132519793477 0 0 0
89 1 2 0.4648 -4.796084873974206 12.70219562440672 11.511824377096536 0 0 0
90 1 2 0.4648 -4.747460483349661 13.349004007191066 7.4580172941438345 0 0 0
91 1 2 0.4648 1.0056140453955633 10.909166687746636 12.622104714023415 0 0 0
92 1 2 0.4648 0.5790271491002406 10.169314674481537 14.759035565455331 0 0 0
93 1 2 0.4648 -0.7470892887214093 9.194480814665267 15.1692611035146 0 0 0
94 1 2 0.4648 -0.2638833495929651 10.833165180401542 11.461489897793095 0 0 0
95 1 2 0.4648 -4.901797896022013 12.560857682636211 15.878364346375502 0 0 0
96 1 2 0.4648 -4.3648683914932604 13.32416933217623 18.00785734287295 0 0 0
97 1 2 0.4648 -4.413335581950169 12.084757709512322 19.227152872976582 0 0 0
98 1 2 0.4648 -4.69670957452133 10.883239753849997 15.520193070806972 0 0 0
99 1 2 0.4648 -0.26812688935177587 10.173945475007855 19.932956195540548 0 0 0
100 1 2 0.4648 -1.0895896170413284 10.822232698323987 22.14557057472852 0 0 0
101 1 2 0.4648 -0.3613618562204657 10.366912651981286 -0.18555008715286891 0 0 1
102 1 2 0.4648 1.32972160443623 9.805789054129379 19.810002924151746 0 0 0
103 1 2 0.4648 -9.39595628621265 18.821726651210465 0.442759148563044 0 0 0
104 1 2 0.4648 -9.409996008716275 19.677824369030603 2.667275238191066 0 0 0
105 1 2 0.4648 -8.202547499713809 20.790601553073195 2.9853793151252317 0 0 0
106 1 2 0.4648 -8.845529332923121 19.80586734229757 -0.846732052771031 0 0 0
107 1 2 0.4648 -4.396460738544475 16.58712749164538 4.839057556920282 0 0 0
108 1 2 0.4648 -4.743480298675475 17.55945336485824 7.1949702440131365 0 0 0
109 1 2 0.4648 -5.197348880845286 19.118734334001555 7.265776159015363 0 0 0
110 1 2 0.4648 -4.587602059924716 17.62373386213576 3.5163699562754918 0 0 0
111 1 2 0.4648 -7.99289670234492 20.305743056796384 7.970104387252279 0 0 0
112 1 2 0.4648 -8.328422075131162 19.262717775927733 10.115872057611949 0 0 0
113 1 2 0.4648 -9.666784459846955 19.517946414649504 11.0713833235526 0 0 0
114 1 2 0.4648 -9.22696599813521 21.166169076257127 7.321511535753961 0 0 0
115 1 2 0.4648 -4.104462029535696 18.235600825645903 12.484539616947165 0 0 0
116 1 2 0.4648 -3.426085006790954 17.69306634425481 14.557821919451301 0 0 0
117 1 2 0.4648 -4.467506973449442 16.734634455592445 15.586849346200374 0 0 0
118 1 2 0.4648 -5.333969644678358 17.337303977550356 11.729802589658679 0 0 0
119 1 2 0.4648 -8.850813573572836 19.568546780157696 15.635632120196433 0 0 0
120 1 2 0.4648 -7.412677667314076 18.798961819057485 17.49650374782747 0 0 0
121 1 2 0.4648 -8.009557836081054 18.857367687400206 19.10172221490032 0 0 0
122 1 2 0.4648 -9.432015723781305 20.99007402360837 15.991881691926466 0 0 0
123 1 2 0.4648 -4.696043378219867 17.512848719088904 19.647284607417884 0 0 0
124 1 2 0.4648 -5.168564216861668 18.429719531822315 21.826018424997734 0 0 0
125 1 2 0.4648 -4.296863164403012 17.966676832043284 -0.5204588200800917 0 0 1
126 1 2 0.4648 -3.416684030280166 16.486285089196 19.426448582873505 0 0 0
127 1 2 0.4648 7.567212545008603 4.531759853258793 0.715420464578127 0 0 0
128 1 2 0.4648 7.4624774676236445 5.634561320914262 2.9151410605616235 0 0 0
129 1 2 0.4648 8.898713847362982 6.258774673242655 3.6130103041184647 0 0 0
130 1 2 0.4648 8.91590984803413 4.674671514956528 -0.1299036901210897 0 0 0
131 1 2 0.4648 12.836020227955425 1.7172329392243277 4.244881173801619 0 0 0
132 1 2 0.4648 12.619221947364105 1.3860915237193674 6.511345080694157 0 0 0
133 1 2 0.4648 12.828920828393455 2.710453467705544 7.5823326626903125 0 0 0
134 1 2 0.4648 13.08481137443748 3.216104000852403 3.5894777249709984 0 0 0
135 1 2 0.4648 9.759326481560835 4.864145060540461 8.420054615272841 0 0 0
136 1 2 0.4648 8.853707833660433 5.256085942211848 10.732080408878552 0 0 0
137 1 2 0.4648 7.4770171383682875 6.129505221479341 10.875546862704535 0 0 0
138 1 2 0.4648 8.705313972689876 4.559563016142321 7.218588539558237 0 0 0
139 1 2 0.4648 12.951304972237944 2.5589171250658316 11.881095170263881 0 0 0
140 1 2 0.4648 13.6663683370263 2.9256864751557994 13.943602508273868 0 0 0
141 1 2 0.4648 12.759476533286696 2.473284872193406 15.271329322029771 0 0 0
142 1 2 0.4648 11.401039587409587 2.3679797606764046 11.449617443356292 0 0 0
143 1 2 0.4648 8.220781602138192 6.129993890715187 16.84197298127496 0 0 0
144 1 2 0.4648 9.24809596703104 5.5089687517137955 18.67709361900936 0 0 0
145 1 2 0.4648 9.174437110258628 4.0361675714900045 19.44590786070418 0 0 0
146 1 2 0.4648 8.331672636146852 5.050532006500387 15.579674230679938 0 0 0
147 1 2 0.4648 12.065097990494523 2.5629945763679407 20.53545816205492 0 0 0
148 1 2 0.4648 12.669093059811035 2.7504633472309745 -0.8408535845772823 0 0 1
149 1 2 0.4648 14.089608142086847 2.1558066749253664 -0.35646951118677794 0 0 1
150 1 2 0.4648 13.261745961668817 1.9832877290054252 19.455952744976667 0 0 0
151 1 2 0.4648 5.241452644300505 14.443756336339847 1.1300520005883044 0 0 0
152 1 2 0.4648 5.281100018465496 13.679611455300568 3.18458613946538 0 0 0
153 1 2 0.4648 4.355025480176474 12.331320383431564 3.6328146297702677 0 0 0
154 1 2 0.4648 4.956980529464884 13.395255656711388 -0.2618398772993894 0 0 0
155 1 2 0.4648 9.273534766143783 9.067952617272207 4.875824055267706 0 0 0
156 1 2 0.4648 8.93860605964319 10.237576401145636 7.066387426193874 0 0 0
157 1 2 0.4648 8.560692549822976 11.83549519993308 7.06210502292317 0 0 0
158 1 2 0.4648 8.970675094263685 9.997064513420373 3.4874403653537724 0 0 0
159 1 2 0.4648 4.904995802892138 12.07090557062954 8.289371341469343 0 0 0
160 1 2 0.4648 4.467441503795822 11.955471344367835 10.43275601588983 0 0 0
161 1 2 0.4648 3.02580443254295 12.748331652135056 11.027930253071032 0 0 0
162 1 2 0.4648 4.2622622662499 13.270475045987482 7.246437430470504 0 0 0
163 1 2 0.4648 7.8733716386906 8.648696972895161 12.360392337336426 0 0 0
164 1 2 0.4648 7.780991762877482 8.879877882086483 14.702006401308532 0 0 0
165 1 2 0.4648 8.049012607040597 10.365575490411098 15.340012970983278 0 0 0
166 1 2 0.4648 8.797622415966975 9.683574585732204 11.462372943228537 0 0 0
167 1 2 0.4648 3.9312294082201795 13.326326696171316 16.30152089477578 0 0 0
168 1 2 0.4648 4.5263627463585365 13.599910163800542 18.580112489846943 0 0 0
169 1 2 0.4648 4.5607341481647214 12.084169547518824 19.42634375834463 0 0 0
170 1 2 0.4648 4.198967214301346 11.870537094535727 15.498959325286048 0 0 0
171 1 2 0.4648 7.549268054487008 10.286958194846953 20.62611323309893 0 0 0
172 1 2 0.4648 8.024015298576535 10.468987276531768 22.78938313539558 0 0 0
173 1 2 0.4648 9.603861202045374 10.259775135411372 -0.2983821975913572 0 0 1
174 1 2 0.4648 8.689164508948002 9.889338328752242 19.47189234142286 0 0 0
175 1 2 0.4648 1.149495628247438 20.313170115650927 -0.2517264493555831 0 0 0
176 1 2 0.4648 1.941937934667541 20.69745975336444 1.6495811119442993 0 0 0
177 1 2 0.4648 1.1849050586406182 20.52723915094425 3.2072771559048663 0 0 0
178 1 2 0.4648 -0.28252517932657817 19.613893658393643 -0.48616880008259855 0 0 0
179 1 2 0.4648 4.039542077735097 16.747645379917323 4.908819166345559 0 0 0
180 1 2 0.4648 4.281739415974219 17.504057586511063 7.150616459128992 0 0 0
181 1 2 0.4648 4.226799079947417 19.175958947656962 7.51140383715261 0 0 0
182 1 2 0.4648 4.535585304594376 17.7298670368791 3.659267311104397 0 0 0
183 1 2 0.4648 1.007620416117831 20.219620795858997 8.797867117681646 0 0 0
184 1 2 0.4648 -0.04047071139343217 20.49812341731176 10.889839337282252 0 0 0
185 1 2 0.4648 -1.658366050552596 20.65548490244894 11.079462853504127 0 0 0
186 1 2 0.4648 -0.026514061202302486 20.245056711562967 7.463618461807316 0 0 0
187 1 2 0.4648 4.735637954934564 18.22658236848952 12.065887785240832 0 0 0
188 1 2 0.4648 5.231952834066217 17.984746076802058 14.141562248733676 0 0 0
189 1 2 0.4648 3.958564904639614 17.55646986573064 15.21163787655183 0 0 0
190 1 2 0.4648 3.4234585584595365 17.60593987806436 11.282506115245162 0 0 0
191 1 2 0.4648 -0.01756776594599785 20.959626352223093 16.30407103190331 0 0 0
192 1 2 0.4648 0.30156155649395266 20.663142814301544 18.8035900538463 0 0 0
193 1 2 0.4648 0.23225601028430987 19.21364989539587 19.510885712175167 0 0 0
194 1 2 0.4648 -0.5069234536385618 19.58318579791492 15.482651666141194 0 0 0
195 1 2 0.4648 4.993285025486504 16.611698335700478 19.245619303074537 0 0 0
196 1 2 0.4648 6.105588180476689 16.740806983744058 21.22578469503837 0 0 0
197 1 2 0.4648 5.560721660891961 17.29086816601092 22.686099671931764 0 0 0
198 1 2 0.4648 3.5100146485659174 17.321616738943177 19.128424780116752 0 0 0
199 1 2 0.4648 -7.233647765857455 4.922754312830468 0.13302368109376417 1 0 0
200 1 2 0.4648 -6.896897614849042 5.083527667510539 2.1192522113778614 1 0 0
201 1 2 0.4648 -8.085946764972087 5.041054934155397 3.398804246982241 1 0 0
202 1 2 0.4648 -8.667792803200287 4.7740459198687155 -0.725795937274706 1 0 0
203 1 2 0.4648 -4.039638148961893 1.8782762538269937 4.1229037034473945 1 0 0
204 1 2 0.4648 -4.793707877082281 1.5299084129674965 6.265409053836253 1 0 0
205 1 2 0.4648 -4.785541167175493 2.8311557925094197 7.354847858907853 1 0 0
206 1 2 0.4648 -4.195364726093767 3.372816628315661 3.3643542475815815 1 0 0
207 1 2 0.4648 -7.460973947942502 4.713994962186103 8.65706208557822 1 0 0
208 1 2 0.4648 -8.093072789509728 4.8901239640070475 10.813512928845093 1 0 0
209 1 2 0.4648 -9.659964048699747 5.179500975014565 11.41345541250982 1 0 0
210 1 2 0.4648 -8.506225687843596 5.334345442881192 7.514210632913375 1 0 0
211 1 2 0.4648 -5.7509293641682175 0.5810631502749949 12.56261084206333 1 0 0
212 1 2 0.4648 -5.666608682744095 1.097738068595095 14.828560187865456 1 0 0
213 1 2 0.4648 -4.362562231211995 2.087222027133381 15.34607166608469 1 0 0
214 1 2 0.4648 -5.0825254643297235 1.5812549304765144 11.334918849863502 1 0 0
215 1 2 0.4648 -8.58900559443113 5.913277635604855 16.67547313426785 1 0 0
216 1 2 0.4648 -8.265684631730181 5.764047475407438 18.795706796708696 1 0 0
217 1 2 0.4648 -8.31026913871791 4.332858132033501 19.68301538493549 1 0 0
218 1 2 0.4648 -8.582086305480281 4.599033730080751 15.603436763944533 1 0 0
219 1 2 0.4648 -2.453850564257449 2.802945494459887 20.292671412290318 1 0 0
220 1 2 0.4648 -2.944445323837592 2.5685190413143753 22.692388294649827 1 0 0
221 1 2 0.4648 -4.4724783304776015 2.5598549591283652 -0.4743588642047555 1 0 1
222 1 2 0.4648 -3.755620624228656 2.5775662230155985 19.21503862649264 1 0 0
224 1 2 0.4648 -13.537342884393873 12.374643099989367 3.111944042560869 1 0 0
225 1 2 0.4648 -12.324854645832103 13.496358724212238 3.632816604035499 1 0 0
226 1 2 0.4648 -12.859483561602008 12.878587255763273 -0.35853648475164646 1 0 0
227 1 2 0.4648 -8.992639625883651 9.899053196297556 4.0922391218682455 1 0 0
228 1 2 0.4648 -8.770475532041132 8.942203765831728 6.4935250074463 1 0 0
229 1 2 0.4648 -8.933614684259524 10.037491840746583 7.71306875196883 1 0 0
230 1 2 0.4648 -8.470464593459678 11.352298206625841 3.766186162373586 1 0 0
231 1 2 0.4648 -11.812748238637587 12.404922458963615 8.989482891946238 1 0 0
232 1 2 0.4648 -12.603409671448233 12.724533743797558 11.044852135538434 1 0 0
233 1 2 0.4648 -14.253159841569376 12.987061237665456 11.30218887643224 1 0 0
234 1 2 0.4648 -12.90824671450385 12.192989405406893 7.609140251063092 1 0 0
235 1 2 0.4648 -10.063147122046384 9.631081366282165 12.7522221736791 1 0 0
236 1 2 0.4648 -9.325037337287919 9.036538969096325 14.974540197455742 1 0 0
237 1 2 0.4648 -7.857134268007127 9.44630259313978 15.541582256077664 1 0 0
238 1 2 0.4648 -8.941219820016679 10.170969553274473 11.688400396021208 1 0 0
240 1 2 0.4648 -12.792520797067546 13.366699248475095 18.296381160253276 1 0 0
241 1 2 0.4648 -13.10777622541757 12.029993860948863 19.299882024465767 1 0 0
242 1 2 0.4648 -13.14089500565634 11.425334098655487 15.289008745965258 1 0 0
243 1 2 0.4648 -9.13576293978341 9.741911440832634 19.699278238652635 1 0 0
244 1 2 0.4648 -10.051718997071015 10.307063157309454 21.72775552682628 1 0 0
245 1 2 0.4648 -8.918857388944854 10.460084441030002 -0.7386966861213173 1 0 1
246 1 2 0.4648 -7.745872717070965 8.770300607245083 19.590819457863983 1 0 0
248 1 2 0.4648 -17.69822009084143 19.97595534008639 2.8205786003017312 1 0 0
249 1 2 0.4648 -16.649392319666962 21.1736986217179 3.2405142877860103 1 0 0
250 1 2 0.4648 -16.907846126794453 19.655701634827587 -0.5244117015556647 1 0 0
251 1 2 0.4648 -12.884635849938054 17.09177315462408 4.161465648774347 1 0 0
252 1 2 0.4648 -13.303021332796547 16.91918484275716 6.427893194830001 1 0 0
253 1 2 0.4648 -12.978460175763944 18.143147745772627 7.47532692300606 1 0 0
254 1 2 0.4648 -13.041456655836996 18.695443836021237 3.5250801621330847 1 0 0
255 1 2 0.4648 -18.247827413165247 21.210938079395785 7.48443900288504 1 0 0
256 1 2 0.4648 6.752440424270313 20.81832548930431 9.450927263672984 0 0 0
257 1 2 0.4648 -18.44707160562174 20.243440898249847 10.754912490675279 1 0 0
258 1 2 0.4648 -16.7098878586724 20.70401730690082 7.087028262076727 1 0 0
259 1 2 0.4648 -12.070125189237334 17.959991091432833 12.919040409097272 1 0 0
260 1 2 0.4648 -12.349945380508583 17.392284686406338 15.14673415578364 1 0 0
261 1 2 0.4648 -13.884624664317188 16.84194452217835 15.696165816913009 1 0 0
262 1 2 0.4648 -13.020224019141938 17.518718399366016 11.691981618059735 1 0 0
263 1 2 0.4648 7.725422742340578 18.962938075487337 15.867733885351761 0 0 0
264 1 2 0.4648 7.591819875123674 18.50966845010151 18.20850230674981 0 0 0
265 1 2 0.4648 -17.946393042293273 19.573251301666044 19.363773268310165 1 0 0
266 1 2 0.4648 -17.54893632143803 20.370554311090576 15.303682263894842 1 0 0
267 1 2 0.4648 -12.394141383400601 16.3836758586678 19.404941186332817 1 0 0
268 1 2 0.4648 -11.783447799895612 15.83229938019444 21.684789889807494 1 0 0
269 1 2 0.4648 -12.52016349106644 16.57230452280714 -0.7043312906315746 1 0 1
270 1 2 0.4648 -13.618691714959645 17.51123581672826 19.204972492846117 1 0 0
271 1 3 0.2225 2.139049159232778 5.40054478772485 1.2329327954303027 0 0 0
272 1 3 0.2225 4.0355262366391464 4.77897220335797 5.51153360331606 0 0 0
273 1 3 0.2225 -1.7574785531505785 5.296939035808214 8.563132564682293 0 0 0
274 1 3 0.2225 5.434244556969809 2.8958726152004037 13.830662421563531 0 0 0
275 1 3 0.2225 -0.01069765955326396 3.0928675454619343 17.32829459142486 0 0 0
276 1 3 0.2225 3.8179855299465935 3.337354775192319 22.004563093057705 0 0 0
277 1 3 0.2225 -4.840082440226567 11.850832994961879 2.0548061010631438 0 0 0
278 1 3 0.2225 -1.1242740677536274 12.100153659224729 5.178331693901707 0 0 0
279 1 3 0.2225 -6.199305011929081 13.643357486282138 9.586397944789379 0 0 0
280 1 3 0.2225 -1.7457044449266634 9.591505965053955 12.892597199565488 0 0 0
281 1 3 0.2225 -4.079580580902448 10.353416251924633 17.789497339687774 0 0 0
282 1 3 0.2225 1.6471286188711556 9.514265080532521 22.194241564423738 0 0 0
283 1 3 0.2225 -7.589669955685936 21.160705997545172 0.6991155293021087 0 0 0
284 1 3 0.2225 -4.9277680904234185 19.58686167870088 4.921838981560854 0 0 0
285 1 3 0.2225 -10.506173710877029 21.29867893710612 9.404505623556583 0 0 0
286 1 3 0.2225 -6.042384864638791 16.322775534969832 13.802377439181088 0 0 0
287 1 3 0.2225 -9.696832536320878 20.475644190476924 18.494206537004235 0 0 0
288 1 3 0.2225 -2.74048816340804 16.529611537151382 21.744889547953267 0 0 0
289 1 3 0.2225 10.156501861912938 5.992800561242812 1.5592912255027473 0 0 0
290 1 3 0.2225 13.21956556846896 4.3040264379873685 5.815089398272178 0 0 0
291 1 3 0.2225 6.9826546359127395 5.924998872740183 8.307165158934552 0 0 0
292 1 3 0.2225 10.826171906497828 1.7433912550080048 13.677116037103858 0 0 0
293 1 3 0.2225 8.316605045881715 3.1138461100930086 17.227245314903517 0 0 0
294 1 3 0.2225 14.823295815450143 1.4283259775805681 21.12051595172279 0 0 0
295 1 3 0.2225 3.880627594815138 11.822847799497916 1.230835529281382 0 0 0
296 1 3 0.2225 8.133557260892138 11.870768110451529 4.5761728676583076 0 0 0
297 1 3 0.2225 2.8050357151091045 14.131547791899331 9.144215654289427 0 0 0
298 1 3 0.2225 9.272069608807312 11.16498513370022 13.477497142919564 0 0 0
299 1 3 0.2225 4.625106236863095 10.73085228850152 17.720550302002163 0 0 0
300 1 3 0.2225 10.440808103952202 9.67258154421754 21.12157669251416 0 0 0
301 1 3 0.2225 -0.9350029948709953 19.808086060013878 2.037565191861095 0 0 0
302 1 3 0.2225 4.761452990691023 19.686283074907546 5.149366403419982 0 0 0
303 1 3 0.2225 -2.072470395672852 20.237636006347437 8.59196977937116 0 0 0
304 1 3 0.2225 2.4846220862121413 16.85365687857711 13.503334043261704 0 0 0
305 1 3 0.2225 -0.4432393812204971 18.072752406252253 17.32137018082235 0 0 0
306 1 3 0.2225 3.2649909666334693 17.740874366540893 21.55850253813949 0 0 0
307 1 3 0.2225 16.14097604436271 4.8545061070833775 1.594996364201746 0 0 0
308 1 3 0.2225 -4.572885612953727 4.468861758830699 5.621626385032485 1 0 0
309 1 3 0.2225 15.617943342218888 5.688323375254768 9.061527512256522 0 0 0
310 1 3 0.2225 -3.8215379071302755 2.8246327841363543 13.223592199777299 1 0 0
311 1 3 0.2225 -8.41217950152177 3.0426357539327475 17.492262044875588 1 0 0
312 1 3 0.2225 -5.366182876243039 2.401279552460577 20.984748531220927 1 0 0
313 1 3 0.2225 -11.522388126960056 13.986402174603006 1.409443424043604 1 0 0
314 1 3 0.2225 -8.424482220769505 11.972820325088973 6.2737129237952285 1 0 0
315 1 3 0.2225 11.238432811877631 12.673079532470021 8.968745871765082 0 0 0
316 1 3 0.2225 -7.2780190321284675 10.544373013684995 13.32990358771089 1 0 0
317 1 3 0.2225 12.77818516305886 10.469728575815438 17.56048112398781 0 0 0
318 1 3 0.2225 -7.307149410116641 9.049365598051809 22.019641689971134 1 0 0
319 1 3 0.2225 -16.1132915927801 21.513134368584566 0.8264955076599756 1 0 0
320 1 3 0.2225 -13.19773043137246 19.813973991628572 5.5063471791404455 1 0 0
321 1 3 0.2225 -16.42116388772839 19.663763659967223 9.418655708859601 1 0 0
322 1 3 0.2225 -14.774974128691278 16.835569922976227 13.380598143413305 1 0 0
323 1 3 0.2225 -17.286577259525465 21.263453010269846 17.54422173017604 1 0 0
324 1 3 0.2225 -13.816384245682437 18.11090368458489 21.500944248648413 1 0 0
325 1 4 -1 7.206679765044029 1.2572474476867948 1.1038212144107844 0 0 0
326 1 4 -1 5.004657000959092 5.813777074682368 1.8889558485974656 0 0 0
327 1 4 -1 2.613525869963434 1.8354488274196488 1.3310692069209804 0 0 0
328 1 4 -1 -2.511256144189648 6.930249665704801 5.649813461123677 0 0 0
329 1 4 -1 -0.2870049671476025 3.2078115936956237 5.31117917562991 0 0 0
330 1 4 -1 2.491956332658317 7.224895870137488 5.053218098442773 0 0 0
331 1 4 -1 6.126993032680158 1.7775233385502118 9.466849097955874 0 0 0
332 1 4 -1 3.818947027890644 5.790306579727158 9.198213227823453 0 0 0
333 1 4 -1 1.308627839902643 1.6082243633815487 9.448286831513679 0 0 0
334 1 4 -1 -3.064248351642563 5.613130982899335 13.050556150777522 0 0 0
335 1 4 -1 -0.1298986694912836 1.6514028665677851 13.58857511676518 0 0 0
336 1 4 -1 1.9795336542401074 6.118669974230529 13.217003132448188 0 0 0
337 1 4 -1 6.591281126549783 0.6691286540051927 17.877093897501016 0 0 0
338 1 4 -1 4.618591846203959 4.698407855015091 17.14558907517038 0 0 0
339 1 4 -1 1.5836046251735088 0.5599008313061159 17.02954884924207 0 0 0
340 1 4 -1 -1.55885771974115 6.163258380116134 21.18865992063938 0 0 0
341 1 4 -1 0.1085192734611562 2.075882519513734 20.932496198965282 0 0 0
342 1 4 -1 3.002102551804416 6.113658081994586 21.48241558004613 0 0 0
343 1 4 -1 2.9479757622989737 9.23463387368086 1.1581144420203857 0 0 0
344 1 4 -1 0.3705408867904989 13.225421331798476 1.9233939953945087 0 0 0
345 1 4 -1 -1.7865985221968614 8.965301596112052 1.6191764312601131 0 0 0
346 1 4 -1 -6.674461969605321 14.885208272613255 6.074296275034894 0 0 0
347 1 4 -1 -4.430718249220241 10.403965750474379 5.331008976851851 0 0 0
348 1 4 -1 -1.7648669634328176 14.670340334129769 5.232245244228616 0 0 0
349 1 4 -1 1.9866021087338996 9.151267086904662 9.285813208096183 0 0 0
350 1 4 -1 -0.7163361959287897 13.36749294271006 9.015142471412936 0 0 0
351 1 4 -1 -2.8204361843657413 8.971385640602826 9.896781778752763 0 0 0
352 1 4 -1 -7.083954898727682 13.721536392569 13.230380929991204 0 0 0
353 1 4 -1 -4.795841271913376 9.113132689171456 13.687723815545526 0 0 0
354 1 4 -1 -2.573953525109829 13.646404038477739 13.388770178162144 0 0 0
355 1 4 -1 2.3676113333291067 7.915639907587797 17.579371364006803 0 0 0
356 1 4 -1 -0.15274624350140176 12.205066130403893 17.371611907949536 0 0 0
357 1 4 -1 -2.396398892640632 7.753267759479431 16.821263372694858 0 0 0
358 1 4 -1 -6.192444555292733 13.63926240181501 21.293681043586478 0 0 0
359 1 4 -1 -3.6760256051377 9.420852722625733 20.772528859158335 0 0 0
360 1 4 -1 -1.6129288741010583 13.698993282139453 21.683462405728523 0 0 0
361 1 4 -1 -1.4132574653795231 16.650069330896542 1.1370287405042856 0 0 0
362 1 4 -1 -4.2404853721052405 20.318324798420893 1.9492460903460047 0 0 0
363 1 4 -1 -6.061567774299501 16.68512662199122 1.5569145981146748 0 0 0
364 1 4 -1 1.8822626709775996 -0.325889812786122 5.673964616121239 0 1 0
365 1 4 -1 -8.816335109668662 17.982522804488546 5.49810137732171 0 0 0
366 1 4 -1 6.595437552631935 -0.3430793653425722 4.955336995609746 0 1 0
367 1 4 -1 -2.547581786110909 16.83378591951864 9.416633194856123 0 0 0
368 1 4 -1 -5.06792802754001 20.836282598089493 9.12478990704194 0 0 0
369 1 4 -1 -7.095187616583681 16.824254386082558 9.884420207484338 0 0 0
370 1 4 -1 -11.582961178312004 20.529651047437202 12.984861919500995 0 0 0
371 1 4 -1 -9.037165395774661 17.21153185370025 13.920177063868303 0 0 0
372 1 4 -1 -7.010315481389906 21.39481534536496 13.703053527924196 0 0 0
373 1 4 -1 -2.0901175382382515 15.4516332696524 17.59530545151971 0 0 0
374 1 4 -1 -4.526250869652834 19.842329087380016 17.448603685430783 0 0 0
375 1 4 -1 -6.765193588770536 15.168901838195852 16.950883089965057 0 0 0
376 1 4 -1 -10.884659935941444 21.140035228737307 20.908261222704088 0 0 0
377 1 4 -1 -8.051155236794601 17.055531690391373 20.925045044268828 0 0 0
378 1 4 -1 -5.846279959797794 21.198229884581984 21.628297222708344 0 0 0
379 1 4 -1 15.968598247109759 0.9766045843521046 0.9401446099312594 0 0 0
380 1 4 -1 13.433745945621668 5.5678871773606025 1.9267982458860569 0 0 0
381 1 4 -1 11.089882300064774 0.8917819625760693 1.6499085514897043 0 0 0
382 1 4 -1 6.235949958927321 7.138548910191491 5.946366808416965 0 0 0
383 1 4 -1 8.772595074211631 2.96527970492546 5.4045537092190035 0 0 0
384 1 4 -1 11.022206513550879 7.155419420840699 5.353452801989606 0 0 0
385 1 4 -1 14.609621509386821 1.5557588273115752 9.702918046956553 0 0 0