LAMMPS data file via write_data, version 23 Jun 2022, timestep = 28

648 atoms
6 atom types
378 bonds
3 bond types
486 angles
4 angle types
432 dihedrals
2 dihedral types
162 impropers
2 improper types

-6.495001 19.486 xlo xhi
-0.653104 21.847103 ylo yhi
-0.901 22.806001 zlo zhi
-12.9905 0 0 xy xz yz

Masses

1 12.01
2 1.008
3 1.008
4 126.900002
5 14.01
6 207.199997

Bond Coeffs # harmonic

1 340.4 1.08
2 448 1.365
3 434 1.01

Angle Coeffs # harmonic

1 35 120
2 35 113
3 35 119.1
4 70 120

Dihedral Coeffs # opls

1 0 3.9 0 0
2 0 3.9 0 0

Improper Coeffs # cvff

1 2.5 -1 2
2 2.5 -1 2

Atoms # full

1 1 1 0.5671 -0.2513571589774415 5.3629467965346445 1.6568325521994007 0 0 0
2 1 1 0.5671 4.0806747178422125 2.897927445463996 5.626531823151337 0 0 0
3 1 1 0.5671 -0.2513745683920643 5.362940755677313 9.559152982232733 0 0 0
4 1 1 0.5671 4.0807144420514945 2.89790972232845 13.528833560154569 0 0 0
5 1 1 0.5671 -0.2512891149226695 5.362919466636188 17.461382546209546 0 0 0
6 1 1 0.5671 4.080670417502217 2.897887948013434 21.43135101351118 0 0 0
7 1 1 0.5671 -4.581486071028406 12.862981421118 1.6568282547551483 0 0 0
8 1 1 0.5671 -0.24935780292632082 10.398087369750334 5.626560696579457 0 0 0
9 1 1 0.5671 -4.5815014232391515 12.862973053811814 9.559149381000651 0 0 0
10 1 1 0.5671 -0.24931568367269197 10.398070339573481 13.528861809105653 0 0 0
11 1 1 0.5671 -4.5814161917110425 12.862952610948547 17.461377357605464 0 0 0
12 1 1 0.5671 -0.24936157459675723 10.398048100701459 21.431380756916393 0 0 0
13 1 1 0.5671 -8.911886096074102 20.36296660872642 1.6568219481211577 0 0 0
14 1 1 0.5671 -4.579762843045705 17.898008276233927 5.626641827484616 0 0 0
15 1 1 0.5671 -8.9119014426927 20.36295929612392 9.559145114126165 0 0 0
16 1 1 0.5671 -4.579720589331222 17.89799176221227 13.528943440158727 0 0 0
17 1 1 0.5671 -8.911816640972246 20.36293827936356 17.461373515435 0 0 0
18 1 1 0.5671 -4.579766536992977 17.89796944020888 21.431461023596626 0 0 0
19 1 1 0.5671 8.408576275611136 5.362806218714781 1.6567543858004907 0 0 0
20 1 1 0.5671 12.740811809505756 2.8980514048510666 5.626598080240991 0 0 0
21 1 1 0.5671 8.408564051076084 5.3627990315854 9.559081385552565 0 0 0
22 1 1 0.5671 12.740851619809265 2.898032671674562 13.528897629294192 0 0 0
23 1 1 0.5671 8.40864932195126 5.362779411102585 17.461310319623877 0 0 0
24 1 1 0.5671 12.740808497967388 2.898012427955928 21.43141520132804 0 0 0
25 1 1 0.5671 4.078395353750478 12.862908278431089 1.6567723159678935 0 0 0
26 1 1 0.5671 8.41069469410352 10.39816698960672 5.626585180206324 0 0 0
27 1 1 0.5671 4.078371619750248 12.86290364307612 9.559090905063114 0 0 0
28 1 1 0.5671 8.410736792929905 10.398149170350255 13.528888542307461 0 0 0
29 1 1 0.5671 4.078456476655788 12.862884222050932 17.461320538280525 0 0 0
30 1 1 0.5671 8.410690960585402 10.398126808753013 21.431407817052232 0 0 0
31 1 1 0.5671 -0.2517511766395817 20.36300077729032 1.6567816003347156 0 0 0
32 1 1 0.5671 4.080580958271122 17.898241288230647 5.6265935866559 0 0 0
33 1 1 0.5671 -0.25176672418855617 20.36299285990637 9.559103818488444 0 0 0
34 1 1 0.5671 4.080623006576923 17.898224479575987 13.528893764050284 0 0 0
35 1 1 0.5671 -0.25168211982832567 20.36297280989371 17.461331244521716 0 0 0
36 1 1 0.5671 4.080577328166639 17.89820218728062 21.431413206513625 0 0 0
37 1 1 0.5671 -8.91141734763133 5.3629625387295805 1.6567497690127844 1 0 0
38 1 1 0.5671 -4.580023357687084 2.8980938539696113 5.626646663740236 1 0 0
39 1 1 0.5671 -8.911441042636929 5.3629583682691635 9.559070567230032 1 0 0
40 1 1 0.5671 -4.579981686086388 2.898076863913344 13.528948135292456 1 0 0
41 1 1 0.5671 -8.911354150342095 5.362936283889704 17.461293405609798 1 0 0
42 1 1 0.5671 -4.580028917781828 2.8980524102772773 21.431462489942678 1 0 0
43 1 1 0.5671 -13.241573552321409 12.86296906479817 1.6567645149639454 1 0 0
44 1 1 0.5671 -8.910140200733183 10.3980268976305 5.626615270791896 1 0 0
45 1 1 0.5671 -13.241597030473423 12.86296452629308 9.559084788133205 1 0 0
46 1 1 0.5671 -8.910098120650044 10.398009797106056 13.52891679352383 1 0 0
47 1 1 0.5671 -13.241510017166895 12.862942309580406 17.46130861908515 1 0 0
48 1 1 0.5671 -8.910144042083829 10.397987671769268 21.431434702181765 1 0 0
49 1 1 0.5671 -17.57173346421244 20.363032336545515 1.6567820073481234 1 0 0
50 1 1 0.5671 -13.240235483351725 17.898146921051172 5.626569114573971 1 0 0
51 1 1 0.5671 -17.571758668603042 20.36302761747305 9.559101387992953 1 0 0
52 1 1 0.5671 -13.240194107538438 17.898128963336752 13.528870648800584 1 0 0
53 1 1 0.5671 -17.57167330298688 20.36300733119127 17.461329894534344 1 0 0
54 1 1 0.5671 -13.2402393574027 17.89810728457222 21.431389341539713 1 0 0
55 1 2 0.4648 0.2876614530097612 4.328388948260664 -0.09430543851909357 0 0 0
56 1 2 0.4648 1.1173630074179597 3.841558704699123 2.0435050410161475 0 0 0
57 1 2 0.4648 0.4986830020888897 4.606050914385159 3.4356231700981503 0 0 0
58 1 2 0.4648 -0.7124592491390409 5.637095293317124 -0.36382201652349067 0 0 0
59 1 2 0.4648 4.783850113668242 1.96387348192436 3.8822668488657586 0 0 0
60 1 2 0.4648 4.920399378444916 1.0400082682197782 6.024605820967331 0 0 0
61 1 2 0.4648 4.510427834116486 1.9229602605399703 7.407716156744383 0 0 0
62 1 2 0.4648 3.9902883689177937 3.399198412444308 3.6060021385751417 0 0 0
63 1 2 0.4648 0.28758700350676847 4.328387545881619 7.8079800879430685 0 0 0
64 1 2 0.4648 1.117346793560186 3.8415656832182004 9.94568087784115 0 0 0
65 1 2 0.4648 0.4987385683364671 4.606050843762386 11.337902055666563 0 0 0
66 1 2 0.4648 -0.7125307963494869 5.637145076916415 7.538462609170825 0 0 0
67 1 2 0.4648 4.783879008156948 1.963828742807912 11.78458140296947 0 0 0
68 1 2 0.4648 4.920510310525424 1.0399984287991058 13.92684921059761 0 0 0
69 1 2 0.4648 4.510474851386649 1.9229561500389423 15.309979199614222 0 0 0
70 1 2 0.4648 3.9903191133628777 3.3991605280839305 11.508267177538826 0 0 0
71 1 2 0.4648 0.2876164280422575 4.328312345769248 15.710202916361052 0 0 0
72 1 2 0.4648 1.117355537289944 3.841487936687477 17.847937875415248 0 0 0
73 1 2 0.4648 0.4987952530147055 4.606031102933561 19.240146637072524 0 0 0
74 1 2 0.4648 -0.7124147726873389 5.637124093265657 15.440672213913874 0 0 0
75 1 2 0.4648 4.783825315281092 1.9638315738559005 19.687105979897897 0 0 0
76 1 2 0.4648 4.920449246682791 1.0399820286141117 21.829372349547658 0 0 0
77 1 2 0.4648 4.510481207209306 1.922978647101528 -0.4944806321331578 0 0 1
78 1 2 0.4648 3.99026479508008 3.3991191619501064 19.410786877588087 0 0 0
79 1 2 0.4648 -4.042486414429943 11.828458750093734 -0.09434864159262035 0 0 0
80 1 2 0.4648 -3.212674188864888 11.34164143968083 2.0434770264074853 0 0 0
81 1 2 0.4648 -3.831352752445648 12.106133941543437 3.435610147766573 0 0 0
82 1 2 0.4648 -5.042622193807862 13.137170272496608 -0.36381822749607307 0 0 0
83 1 2 0.4648 0.4536971109826089 9.46394264787993 3.8822963411779634 0 0 0
84 1 2 0.4648 0.5902428314760018 8.5401136517758 6.0246025206522935 0 0 0
85 1 2 0.4648 0.1803206153744874 9.423064146462783 7.407734831974551 0 0 0
86 1 2 0.4648 -0.3396809555438187 10.899352469238515 3.606022269454698 0 0 0
87 1 2 0.4648 -4.042561900753826 11.828464906112924 7.80794073803864 0 0 0
88 1 2 0.4648 -3.2126824289242615 11.341666181613686 9.945660637569647 0 0 0
89 1 2 0.4648 -3.831299189946175 12.106139940737924 11.337890488718234 0 0 0
90 1 2 0.4648 -5.042693031303965 13.137220526629177 7.538473975536073 0 0 0
91 1 2 0.4648 0.4537213096577837 9.463897371281668 11.784610556031458 0 0 0
92 1 2 0.4648 0.5903525879208047 8.540104451157514 13.926846573905802 0 0 0
93 1 2 0.4648 0.18036900742229545 9.423059785489958 15.309997520946169 0 0 0
94 1 2 0.4648 -0.3396485606314128 10.899316509811513 11.50828922705306 0 0 0
95 1 2 0.4648 -4.0425323844147165 11.828389363743682 15.710163234528263 0 0 0
96 1 2 0.4648 -3.212673476576035 11.341589260527847 17.84791783694858 0 0 0
97 1 2 0.4648 -3.8312426021946298 12.106120850414662 19.24013487412863 0 0 0
98 1 2 0.4648 -5.042576810820021 13.1371997555051 15.440682816181223 0 0 0
99 1 2 0.4648 0.45367307780479926 9.463901966805846 19.687136181638373 0 0 0
100 1 2 0.4648 0.5902924237340157 8.540088033900147 21.829369228431347 0 0 0
101 1 2 0.4648 0.18037496012830978 9.423082159682412 -0.49446142408795357 0 0 1
102 1 2 0.4648 -0.33970275116229853 10.89927447186984 19.410808376638585 0 0 0
103 1 2 0.4648 -8.372780068341726 19.32846508912023 -0.09430694908449033 0 0 0
104 1 2 0.4648 -7.5431232424683685 18.841602612203946 2.0434557596556084 0 0 0
105 1 2 0.4648 -8.161887962645249 19.606017642177452 3.4356488031596273 0 0 0
106 1 2 0.4648 -9.37292399342897 20.637208216201028 -0.3638458917428411 0 0 0
107 1 2 0.4648 -3.8765878843225696 16.964084843196666 3.882292124391599 0 0 0
108 1 2 0.4648 -3.739926719569226 16.04010521437811 6.02457245271748 0 0 0
109 1 2 0.4648 -4.149886942571502 16.92297985449741 7.407773543979076 0 0 0
110 1 2 0.4648 -4.670270478637299 18.399350434387248 3.6061449467269586 0 0 0
111 1 2 0.4648 -8.37285436067153 19.328468806901082 7.807979000095383 0 0 0
112 1 2 0.4648 -7.543130915334951 18.84162245624528 9.94563684899774 0 0 0
113 1 2 0.4648 -8.161832971079022 19.606022115865354 11.337931299869153 0 0 0
114 1 2 0.4648 -9.372995672726288 20.6372585853517 7.538445694053152 0 0 0
115 1 2 0.4648 -3.876563763496458 16.964038964125862 11.784606437378482 0 0 0
116 1 2 0.4648 -3.7398159604447727 16.040096285913954 13.926816836756807 0 0 0
117 1 2 0.4648 -4.149838087254887 16.922975519367302 15.310036161419976 0 0 0
118 1 2 0.4648 -4.67023874553429 18.399314673269224 11.508411857849993 0 0 0
119 1 2 0.4648 -8.37282474872848 19.32839397248094 15.710201390186633 0 0 0
120 1 2 0.4648 -7.543121808282963 18.841545546555157 17.847893563803613 0 0 0
121 1 2 0.4648 -8.161776053817766 19.6060022863512 19.240175473599077 0 0 0
122 1 2 0.4648 -9.372880007189973 20.6372380486957 15.440654866134263 0 0 0
123 1 2 0.4648 -3.8766122284394804 16.964043188403743 19.687131290805997 0 0 0
124 1 2 0.4648 -3.7398772402791103 16.0400794686411 21.82933974298047 0 0 0
125 1 2 0.4648 -4.149832369998704 16.92299795789714 -0.49442344774749225 0 0 1
126 1 2 0.4648 -4.670293670337008 18.39927270180441 19.410930652734702 0 0 0
127 1 2 0.4648 8.948169345717474 4.328286641759279 -0.09421147821507947 0 0 0
128 1 2 0.4648 9.777434758748514 3.8415875584527495 2.0437638199077863 0 0 0
129 1 2 0.4648 9.158335692655589 4.606083889445691 3.435710156561967 0 0 0
130 1 2 0.4648 7.948053708908267 5.636919060895978 -0.3640662940889001 0 0 0
131 1 2 0.4648 13.443547691417658 1.963770416693574 3.882188396582941 0 0 0
132 1 2 0.4648 13.58019793529983 1.039980477304907 6.024550824435591 0 0 0
133 1 2 0.4648 13.169738430750877 1.9226977040285451 7.407751096245642 0 0 0
134 1 2 0.4648 12.650517255032968 3.3994161923299018 3.6060585653365393 0 0 0
135 1 2 0.4648 8.948095894623599 4.328290926459634 7.808074117563796 0 0 0
136 1 2 0.4648 9.77743375199332 3.8416103589316624 9.945945358121897 0 0 0
137 1 2 0.4648 9.158400331899434 4.606092252835481 11.337991752474922 0 0 0
138 1 2 0.4648 7.947981689049131 5.6369673225124215 7.538225342338869 0 0 0
139 1 2 0.4648 13.443572884398987 1.9637242214408444 11.784502828672869 0 0 0
140 1 2 0.4648 13.580309029038611 1.0399723744281388 13.926794933544217 0 0 0
141 1 2 0.4648 13.169786537436012 1.922693973899094 15.310012922787994 0 0 0
142 1 2 0.4648 12.65054967664616 3.3993797865842508 11.508324702371102 0 0 0
143 1 2 0.4648 8.948125432690071 4.328215921455517 15.710297169591758 0 0 0
144 1 2 0.4648 9.777441972381558 3.8415332784903073 17.84820285999218 0 0 0
145 1 2 0.4648 9.158456994189981 4.606074416076944 19.240236216263003 0 0 0
146 1 2 0.4648 7.948097158044257 5.636947226224682 15.44043470400317 0 0 0
147 1 2 0.4648 13.443524646930927 1.9637285285931392 19.687028643686478 0 0 0
148 1 2 0.4648 13.580248266423618 1.0399557502701162 21.829318047922683 0 0 0
149 1 2 0.4648 13.169793399925142 1.9227158350628928 -0.49444608959675007 0 0 1
150 1 2 0.4648 12.650495028575419 3.399337950243541 19.41084433972906 0 0 0
151 1 2 0.4648 4.6180407231230305 11.828450162661245 -0.09420465628835017 0 0 0
152 1 2 0.4648 5.447405401118752 11.34181711656302 2.043752267717303 0 0 0
153 1 2 0.4648 4.82825082533356 12.106257696016888 3.435711488983749 0 0 0
154 1 2 0.4648 3.6177840588332923 13.136995332070253 -0.36401418829318 0 0 0
155 1 2 0.4648 9.113372716817404 9.46376049481331 3.8822606884696045 0 0 0
156 1 2 0.4648 9.249950669566784 8.54005058576929 6.02459180968069 0 0 0
157 1 2 0.4648 8.839492518256838 9.422797795036148 7.4077635142628075 0 0 0
158 1 2 0.4648 8.32047222133067 10.899434326886508 3.606036438320272 0 0 0
159 1 2 0.4648 4.617962114520212 11.828453489755608 7.808073643443146 0 0 0
160 1 2 0.4648 5.447391531617017 11.341837924799448 9.945924464164008 0 0 0
161 1 2 0.4648 4.828305848897259 12.106249363930322 11.337991884812778 0 0 0
162 1 2 0.4648 3.61770873237295 13.137051112609365 7.538268047405186 0 0 0
163 1 2 0.4648 9.113396702249135 9.463714257952413 11.784575256227868 0 0 0
164 1 2 0.4648 9.250062472320655 8.54004099067611 13.92683595305027 0 0 0
165 1 2 0.4648 8.839541352592535 9.422792376509452 15.310026446898593 0 0 0
166 1 2 0.4648 8.320504670723789 10.899397852091957 11.508303737531433 0 0 0
167 1 2 0.4648 4.617992417937765 11.828379010760031 15.71029806598845 0 0 0
168 1 2 0.4648 5.447398756423141 11.341760315789163 17.848182576153086 0 0 0
169 1 2 0.4648 4.8283613049118745 12.106230409327265 19.240237092201475 0 0 0
170 1 2 0.4648 3.6178246705227277 13.137030030073028 15.440477014325161 0 0 0
171 1 2 0.4648 9.113349435009516 9.463719650966777 19.687101202636 0 0 0
172 1 2 0.4648 9.250001983405335 8.540025219578945 21.829358548813534 0 0 0
173 1 2 0.4648 8.839547326219128 9.422815509427815 -0.494432106196761 0 0 1
174 1 2 0.4648 8.320448566500401 10.899354419634623 19.410822467379944 0 0 0
175 1 2 0.4648 0.2878765834719772 19.328515035214846 -0.09419316454487181 0 0 0
176 1 2 0.4648 1.1172555085404596 18.841900876753783 2.0437538358735647 0 0 0
177 1 2 0.4648 0.49815192623384696 19.60638499678429 3.435719868678585 0 0 0
178 1 2 0.4648 -0.7123759903089137 20.637069297096044 -0.3640225734512951 0 0 0
179 1 2 0.4648 4.783244318352214 16.96381607069198 3.8822510235219205 0 0 0
180 1 2 0.4648 4.9197903160529926 16.040097673756453 6.024626356385568 0 0 0
181 1 2 0.4648 4.509348911185185 16.922870084525186 7.40777752158915 0 0 0
182 1 2 0.4648 3.99039557283362 18.3995289445546 3.6060368886478376 0 0 0
183 1 2 0.4648 0.2878025357494369 19.328518245655175 7.8080922803514525 0 0 0
184 1 2 0.4648 1.1172481696880698 18.84191987172922 9.945934750589451 0 0 0
185 1 2 0.4648 0.4982072887932656 19.606388334645946 11.338001629958262 0 0 0
186 1 2 0.4648 -0.7124473182115239 20.637119176576423 7.538268758780106 0 0 0
187 1 2 0.4648 4.783268549578763 16.9637704080321 11.784565059497966 0 0 0
188 1 2 0.4648 4.919901411239099 16.04008849142609 13.926870199064835 0 0 0
189 1 2 0.4648 4.50939778186711 16.92286546958225 15.310039732692609 0 0 0
190 1 2 0.4648 3.9904278725765607 18.399492611712475 11.508303524337185 0 0 0
191 1 2 0.4648 0.28783179343082566 19.3284428601284 15.710314555016762 0 0 0
192 1 2 0.4648 1.1172565969837969 18.841842699470135 17.84819179768969 0 0 0
193 1 2 0.4648 0.4982634448907177 19.606369046787865 19.240245934511805 0 0 0
194 1 2 0.4648 -0.7123318538162735 20.637098767350142 15.440477692509859 0 0 0
195 1 2 0.4648 4.783220765091583 16.963775185355814 19.68709111561105 0 0 0
196 1 2 0.4648 4.919841577256104 16.040072319024368 21.829393081261436 0 0 0
197 1 2 0.4648 4.509403767853241 16.922887910043396 -0.4944189229255028 0 0 1
198 1 2 0.4648 3.9903730878274892 18.399449545867892 19.410822531435343 0 0 0
199 1 2 0.4648 -8.372453887714398 4.328218982687563 -0.0942769008998624 1 0 0
200 1 2 0.4648 -7.5430019434357805 3.841338493175085 2.0435934837062844 1 0 0
201 1 2 0.4648 -8.16195185692093 4.605830325228444 3.435689072678154 1 0 0
202 1 2 0.4648 -9.371981814521437 5.637363995821143 -0.3640069955762777 1 0 0
203 1 2 0.4648 -3.877212148402844 1.9638842432460413 3.882271570058056 1 0 0
204 1 2 0.4648 -3.740364307690568 1.04012384089974 6.0245862893667725 1 0 0
205 1 2 0.4648 -4.1506675177729555 1.9228554271239129 7.407755154702475 1 0 0
206 1 2 0.4648 -4.670368774604732 3.3994420704972113 3.60608732838344 1 0 0
207 1 2 0.4648 -8.372531272548486 4.328223277208592 7.808002995038157 1 0 0
208 1 2 0.4648 -7.5430169479485425 3.8413594171187917 9.945765587217112 1 0 0
209 1 2 0.4648 -8.161896169481125 4.605823918745583 11.337970228268295 1 0 0
210 1 2 0.4648 -9.372056717608334 5.637419225807538 7.538275254463102 1 0 0
211 1 2 0.4648 -3.8771860621515177 1.96383909445938 11.784586712846469 1 0 0
212 1 2 0.4648 -3.7402542326456643 1.0401147009199003 13.926830765273834 1 0 0
213 1 2 0.4648 -4.150619322187834 1.9228508632141659 15.310017770217797 1 0 0
214 1 2 0.4648 -4.670336678258803 3.399405315398554 11.508354625584387 1 0 0
215 1 2 0.4648 -8.372501452832717 4.328147307725062 15.710225477249015 1 0 0
216 1 2 0.4648 -7.543011443256162 3.8412847578272116 17.84802220915574 1 0 0
217 1 2 0.4648 -8.161840560393047 4.605804599101909 19.24021184023573 1 0 0
218 1 2 0.4648 -9.371937606221024 5.637394768233566 15.440480084568694 1 0 0
219 1 2 0.4648 -3.877242687278782 1.96384069893455 19.68710876401048 1 0 0
220 1 2 0.4648 -3.740317159900628 1.0400997277922133 21.829352153834474 1 0 0
221 1 2 0.4648 -4.150611922294198 1.922876001276999 -0.4944431526375289 1 0 1
222 1 2 0.4648 -4.6703991324367955 3.399362922380937 19.410871600645702 1 0 0
223 1 2 0.4648 -12.702574964058545 11.828248719770919 -0.09427846081102143 1 0 0
224 1 2 0.4648 -11.873105632911686 11.341370763649001 2.0436280012342216 1 0 0
225 1 2 0.4648 -12.492042456838705 12.10586767979052 3.4356711796097565 1 0 0
226 1 2 0.4648 -13.702119076838438 13.137345274643389 -0.363996876553911 1 0 0
227 1 2 0.4648 -8.207236998858274 9.463813331540935 3.8822775677209718 1 0 0
228 1 2 0.4648 -8.070347195840155 8.540140503119744 6.024611868912462 1 0 0
229 1 2 0.4648 -8.48071185555881 9.422899988797226 7.40775478620966 1 0 0
230 1 2 0.4648 -9.000524867915118 10.899293140155503 3.606024245326079 1 0 0
231 1 2 0.4648 -12.702653251921408 11.828252460392829 7.808001010047871 1 0 0
232 1 2 0.4648 -11.873119626655189 11.3413917555167 9.945799404011039 1 0 0
233 1 2 0.4648 -12.49198618850755 12.10586053369099 11.337951721192098 1 0 0
234 1 2 0.4648 -13.70219403673628 13.13740043276677 7.5382855540756974 1 0 0
235 1 2 0.4648 -8.207212506680566 9.463766995396876 11.784591728743008 1 0 0
236 1 2 0.4648 -8.070236579360962 8.540131427395641 13.92685600750673 1 0 0
237 1 2 0.4648 -8.480663101241234 9.422895430469968 15.31001682585391 1 0 0
238 1 2 0.4648 -9.00049280234327 10.899256540730194 11.50829089150344 1 0 0
239 1 2 0.4648 -12.702623254406802 11.828176934283357 15.710223581491753 1 0 0
240 1 2 0.4648 -11.873114059713307 11.341317119318317 17.84805617060319 1 0 0
241 1 2 0.4648 -12.49193059187325 12.105841215398922 19.24019352428786 1 0 0
242 1 2 0.4648 -13.702075060655153 13.137375879854103 15.44049068084863 1 0 0
243 1 2 0.4648 -8.207261237240028 9.463771131104592 19.687116836248606 1 0 0
244 1 2 0.4648 -8.070298530689287 8.540115021173357 21.829379059282587 1 0 0
245 1 2 0.4648 -8.480656966924926 9.422918527967953 -0.494442105128388 1 0 1
246 1 2 0.4648 -9.000548022272042 10.899214354806341 19.41081009446173 1 0 0
247 1 2 0.4648 -17.03273970081787 19.32830478435802 -0.09422405949661805 1 0 0
248 1 2 0.4648 -16.20326099560069 18.84145289037768 2.04364514993161 1 0 0
249 1 2 0.4648 -16.822207178764728 19.605928252592125 3.4356913746272024 1 0 0
250 1 2 0.4648 -18.032276427191295 20.637405361254814 -0.3639788060463949 1 0 0
251 1 2 0.4648 -12.537402808912468 16.963901635769282 3.8822163595666535 1 0 0
252 1 2 0.4648 -12.400626785323848 16.040186521442187 6.024559069457405 1 0 0
253 1 2 0.4648 -12.810991800082842 16.92291461225987 7.407707639524185 1 0 0
254 1 2 0.4648 -13.330533941658977 18.399467325198547 3.6059939083938586 1 0 0
255 1 2 0.4648 -17.032818565288082 19.328308048671765 7.808055471206089 1 0 0
256 1 2 0.4648 -16.20327575553896 18.841474169080946 9.945817004936458 1 0 0
257 1 2 0.4648 -16.822152989928405 19.60592004872539 11.337972153925426 1 0 0
258 1 2 0.4648 -18.03235130609565 20.637460688537985 7.53830311497253 1 0 0
259 1 2 0.4648 -12.537378200530524 16.963855020731557 11.784530516550747 1 0 0
260 1 2 0.4648 -12.400515878069143 16.040177072530344 13.92680356855365 1 0 0
261 1 2 0.4648 -12.810943212951887 16.92290986807205 15.309969962134556 1 0 0
262 1 2 0.4648 -13.330502535136919 18.399429801699924 11.508260351860903 1 0 0
263 1 2 0.4648 -17.03278877164509 19.328232751925686 15.710278543502724 1 0 0
264 1 2 0.4648 -16.203267218333696 18.84139609537444 17.848074963685637 1 0 0
265 1 2 0.4648 -16.822097006709704 19.605899488470982 19.240216809420023 1 0 0
266 1 2 0.4648 -18.03223542511003 20.637439564403294 15.440511977151246 1 0 0
267 1 2 0.4648 -12.537427371741687 16.963859046922266 19.68705572576356 1 0 0
268 1 2 0.4648 -12.400578116307413 16.04016066907845 21.82932672577671 1 0 0
269 1 2 0.4648 -12.810936979670958 16.92293316992659 -0.49448874998596437 1 0 1
270 1 2 0.4648 -13.33055757784911 18.399387556607017 19.41077987205356 1 0 0
271 1 3 0.2225 -0.852389742678505 6.1776333756585045 2.0731305716407675 0 0 0
272 1 3 0.2225 3.574459612805194 3.783063848050098 6.041490230629852 0 0 0
273 1 3 0.2225 -0.8523625487292232 6.177596001764774 9.975398305655373 0 0 0
274 1 3 0.2225 3.5744858519045355 3.7830387975481248 13.943754657132644 0 0 0
275 1 3 0.2225 -0.8522171342881766 6.177621867127984 17.87758845182109 0 0 0
276 1 3 0.2225 3.574445379340041 3.783031812285195 21.846290727064247 0 0 0
277 1 3 0.2225 -5.182522311958847 13.677641308392655 2.0731591994157936 0 0 0
278 1 3 0.2225 -0.7555095610888509 11.283247326060213 6.041544874404257 0 0 0
279 1 3 0.2225 -5.182501090233249 13.677603742503205 9.975431557807635 0 0 0
280 1 3 0.2225 -0.7554790930419406 11.283224631979369 13.943811104503517 0 0 0
281 1 3 0.2225 -5.182354938366625 13.67763083967843 17.877620716123033 0 0 0
282 1 3 0.2225 -0.7555229670626176 11.283215823790952 21.846345933229916 0 0 0
283 1 3 0.2225 -9.512939139064839 21.177591418837828 2.073125641439658 0 0 0
284 1 3 0.2225 -5.086113847548226 18.783046491779487 6.041679848093856 0 0 0
285 1 3 0.2225 -9.512914955511338 21.1775517399378 9.975397294227566 0 0 0
286 1 3 0.2225 -5.086082714899321 18.78302367030464 13.943946387155561 0 0 0
287 1 3 0.2225 -9.512769886290348 21.177577767646763 17.877587403523755 0 0 0
288 1 3 0.2225 -5.086127251557297 18.783014346432974 21.846481139866004 0 0 0
289 1 3 0.2225 7.807292959226746 6.177360494705227 2.0729160640547883 0 0 0
290 1 3 0.2225 12.23464369080506 3.7831919908980307 6.041597586248687 0 0 0
291 1 3 0.2225 7.807319645415339 6.177318125666469 9.975187637792297 0 0 0
292 1 3 0.2225 12.234670117977972 3.7831674061999276 13.943864012326642 0 0 0
293 1 3 0.2225 7.807465865171135 6.177345636115742 17.877377068874917 0 0 0
294 1 3 0.2225 12.234630231665902 3.783160097178815 21.84640004164626 0 0 0
295 1 3 0.2225 3.4770595452550523 13.677435281225229 2.0729626148049114 0 0 0
296 1 3 0.2225 7.904570135009692 11.283344620643714 6.04156092886223 0 0 0
297 1 3 0.2225 3.477090604819743 13.677385840792395 9.975231689308654 0 0 0
298 1 3 0.2225 7.904600783019099 11.283320966177648 13.943827599740072 0 0 0
299 1 3 0.2225 3.4772353323595624 13.677413540342839 17.87742126538727 0 0 0
300 1 3 0.2225 7.9045557758431375 11.283312067458382 21.846362240360662 0 0 0
301 1 3 0.2225 -0.8530219655257234 21.17756932502029 2.072965558332311 0 0 0
302 1 3 0.2225 3.574505685770408 18.783443523889318 6.04155702176135 0 0 0
303 1 3 0.2225 -0.852998101181651 21.17752841985413 9.975237822387678 0 0 0
304 1 3 0.2225 3.5745361122972223 18.783420192653765 13.943823342417097 0 0 0
305 1 3 0.2225 -0.8528523026355668 21.177555244160708 17.877426965973022 0 0 0
306 1 3 0.2225 3.5744920103869475 18.78341104749977 21.846358370889217 0 0 0
307 1 3 0.2225 -9.512306015996533 6.177766140243344 2.072970193896614 1 0 0
308 1 3 0.2225 -5.086177087259343 3.7832364974368335 6.041637715936003 1 0 0
309 1 3 0.2225 -9.51227564537612 6.177717238963096 9.975239178749371 1 0 0
310 1 3 0.2225 -5.086146227839579 3.783213723870227 13.943904296302518 1 0 0
311 1 3 0.2225 -9.512128358533705 6.177744223659823 17.877423214287973 1 0 0
312 1 3 0.2225 -5.086193932152522 3.7832067049166893 21.84643760058613 1 0 0
313 1 3 0.2225 -13.842424577127815 13.677822854241557 2.0729781233421996 1 0 0
314 1 3 0.2225 -9.416366912108348 11.28314405019471 6.041583042768077 1 0 0
315 1 3 0.2225 -13.842394023692236 13.677773843375252 9.975247424758692 1 0 0
316 1 3 0.2225 -9.416335816091838 11.283120837218679 13.943848958557561 1 0 0
317 1 3 0.2225 -13.842247084595355 13.677800554584818 17.877431468393763 1 0 0
318 1 3 0.2225 -9.416380519844965 11.283111912026412 21.84638380543144 1 0 0
319 1 3 0.2225 -18.17261731459815 21.177867499414013 2.073005995695538 1 0 0
320 1 3 0.2225 -13.746415358352849 18.783286963203814 6.041551658374293 1 0 0
321 1 3 0.2225 -18.17258785050521 21.177817980959546 9.975275389079519 1 0 0
322 1 3 0.2225 -13.746384695006714 18.78326319499347 13.94381759219167 1 0 0
323 1 3 0.2225 -18.172441429910382 21.177844398319735 17.877464929137826 1 0 0
324 1 3 0.2225 -13.746428967267615 18.783254500002997 21.846352274395535 1 0 0
325 1 4 -1 6.587109955245955 1.1780420163731002 1.6030597082136142 0 0 0
326 1 4 -1 4.31975631723701 5.339226883037689 1.5561406347078035 0 0 0
327 1 4 -1 1.925964567279527 1.2143217509351474 1.4639753626112235 0 0 0
328 1 4 -1 -2.4643911004157673 6.409245654467606 5.503997974058439 0 0 0
329 1 4 -1 0.06353967806585459 2.382925430877571 5.5560659731513455 0 0 0
330 1 4 -1 2.3121557816970153 6.460613691977267 5.415269693180602 0 0 0
331 1 4 -1 6.587164553382349 1.1779917190914304 9.505453492994828 0 0 0
332 1 4 -1 4.319770056236779 5.339272881053339 9.458523799191312 0 0 0
333 1 4 -1 1.9259412733513397 1.2142453878107964 9.36633145327229 0 0 0
334 1 4 -1 -2.4643351731774636 6.409170465402555 13.406264649346689 0 0 0
335 1 4 -1 0.06360421357598156 2.3829068015641917 13.458422093161373 0 0 0
336 1 4 -1 2.3121711396112357 6.460521445433956 13.317615348649058 0 0 0
337 1 4 -1 6.5872211828214855 1.1779480324039575 17.407608259602096 0 0 0
338 1 4 -1 4.319872276434934 5.339140886552626 17.360750599209798 0 0 0
339 1 4 -1 1.926105408747759 1.2142084123845476 17.268546505240494 0 0 0
340 1 4 -1 -2.4644103181465953 6.409253208118709 21.308589878326277 0 0 0
341 1 4 -1 0.06353779060422138 2.3828851259202977 21.36060003153622 0 0 0
342 1 4 -1 2.312160421149544 6.460625964504464 21.21983799754669 0 0 0
343 1 4 -1 2.25704087730187 8.678227758874986 1.6029414672141493 0 0 0
344 1 4 -1 -0.010409385664835291 12.8393850941129 1.5561865659909528 0 0 0
345 1 4 -1 -2.404098011025476 8.714419415634579 1.4640741382828908 0 0 0
346 1 4 -1 -6.7946162280045765 13.909219435922935 5.5040152569146255 0 0 0
347 1 4 -1 -4.266585266500744 9.882882339427706 5.556070258767051 0 0 0
348 1 4 -1 -2.0180785113962596 13.960671002624874 5.4153085805786 0 0 0
349 1 4 -1 2.2570993383197244 8.678174193471676 9.50533801924508 0 0 0
350 1 4 -1 -0.010391943557677585 12.83943718155268 9.458567360080897 0 0 0
351 1 4 -1 -2.4041162944828116 8.714344588943417 9.366428978196026 0 0 0
352 1 4 -1 -6.794560094560865 13.909144163416078 13.406281804919706 0 0 0
353 1 4 -1 -4.266519816498128 9.88286457454476 13.458425545529822 0 0 0
354 1 4 -1 -2.0180604014827193 13.960581296389616 13.317654931540106 0 0 0
355 1 4 -1 2.257150009776284 8.678125392014568 17.407484836598147 0 0 0
356 1 4 -1 -0.010293819312014563 12.839309173234637 17.360805597371847 0 0 0
357 1 4 -1 -2.4039525746638803 8.714306929495912 17.268646326120614 0 0 0
358 1 4 -1 -6.794634534688205 13.909227976898714 21.30860697272303 0 0 0
359 1 4 -1 -4.266586272581011 9.88284301230841 21.36060325291623 0 0 0
360 1 4 -1 -2.0180725458952544 13.960687167206814 21.219882936649835 0 0 0
361 1 4 -1 -2.0731715633914227 16.178292993784353 1.6030275463921082 0 0 0
362 1 4 -1 -4.340793358620063 20.33932352401845 1.556275598458096 0 0 0
363 1 4 -1 -6.734420024761748 16.214495824163723 1.46405275463227 0 0 0
364 1 4 -1 -11.12491104812671 21.40938048190659 5.5039489624074305 0 0 0
365 1 4 -1 -8.596842283490844 17.38293137362709 5.556043967693509 0 0 0
366 1 4 -1 -6.34833276545471 21.46066078169877 5.415429886777041 0 0 0
367 1 4 -1 -2.073116052930427 16.178240503801437 9.505423307768272 0 0 0
368 1 4 -1 -4.340775530987884 20.3393770383403 9.45865712682736 0 0 0
369 1 4 -1 -6.734438897957345 16.214420760998518 9.366407896150026 0 0 0
370 1 4 -1 -11.124854931364686 21.409304458389535 13.40621675241012 0 0 0
371 1 4 -1 -8.596776855902291 17.382913639081952 13.458399365524158 0 0 0
372 1 4 -1 -6.348315802971749 21.460573761004294 13.317775091862014 0 0 0
373 1 4 -1 -2.0730597699529802 16.178194382840186 17.40757496864855 0 0 0
374 1 4 -1 -4.340677418546871 20.339251321522195 17.360891383177268 0 0 0
375 1 4 -1 -6.734274534575508 16.214383108241737 17.268625597192997 0 0 0
376 1 4 -1 -11.124929027757673 21.40938904427946 21.30854332180545 0 0 0
377 1 4 -1 -8.596842935801769 17.382892012340925 21.36057682905483 0 0 0
378 1 4 -1 -6.3483263968234365 21.460677849846256 21.22000291335236 0 0 0
379 1 4 -1 15.247073386433312 1.1775574096154657 1.6034254756659985 0 0 0
380 1 4 -1 12.97991108841254 5.338959530064277 1.5559024924226683 0 0 0
381 1 4 -1 10.586310757479362 1.2142797167175026 1.464223451254085 0 0 0
382 1 4 -1 6.196074424298933 6.4090277797166975 5.503558498260138 0 0 0
383 1 4 -1 8.724263715776258 2.3825502734365935 5.556178997398943 0 0 0
384 1 4 -1 10.972037085433842 6.460545369896427 5.415043443357279 0 0 0
385 1 4 -1 15.247127986249167 1.1775037428221213 9.505821842724343 0 0 0
386 1 4 -1 12.979932141061306 5.339011404899862 9.45828521776839 0 0 0