ITEM: TIMESTEP
0
ITEM: NUMBER OF ATOMS
648
ITEM: BOX BOUNDS xy xz yz pp pp pp
-1.9485500999999999e+01 1.9486000000000001e+01 -1.2990500000000001e+01
-6.5310400000000002e-01 2.1847103000000001e+01 0.0000000000000000e+00
-9.0100000000000002e-01 2.2806000999999998e+01 0.0000000000000000e+00
ITEM: ATOMS id type xs ys zs
473 4 0.00247596 0.83574 0.252452
247 2 0.999279 0.875288 0.0697955
223 2 0.00342264 0.558705 0.0731938
239 2 0.0497049 0.60749 0.707503
1 1 0.428031 0.273732 0.094619
2 1 0.506661 0.193716 0.269512
3 1 0.3556 0.267812 0.413546
4 1 0.492885 0.145966 0.611388
5 1 0.354733 0.214261 0.76511
6 1 0.488249 0.142975 0.942975
7 1 0.381248 0.58509 0.101279
8 1 0.488048 0.524729 0.2634
9 1 0.355383 0.613952 0.438549
10 1 0.455098 0.467438 0.594298
11 1 0.351168 0.533327 0.773122
12 1 0.514337 0.47105 0.956631
13 1 0.397623 0.936827 0.0788002
14 1 0.488508 0.854883 0.262286
15 1 0.353389 0.948016 0.430343
16 1 0.4423 0.780675 0.615304
17 1 0.355658 0.914397 0.787095
18 1 0.504707 0.787713 0.941319
19 1 0.742801 0.284435 0.107574
20 1 0.838617 0.173382 0.277436
21 1 0.692599 0.279962 0.412065
22 1 0.766499 0.123483 0.60627
23 1 0.685749 0.213373 0.77342
24 1 0.84347 0.116523 0.936457
25 1 0.717728 0.591666 0.104745
26 1 0.837622 0.519691 0.255263
27 1 0.69785 0.622403 0.425384
28 1 0.827015 0.484923 0.602936
29 1 0.698729 0.552893 0.778359
30 1 0.847608 0.468783 0.9429
31 1 0.711601 0.924671 0.104688
32 1 0.851601 0.860719 0.269955
33 1 0.673117 0.933817 0.422658
34 1 0.781361 0.796732 0.598425
35 1 0.683894 0.878097 0.772065
36 1 0.807769 0.797344 0.928236
37 1 0.034707 0.244698 0.0985133
38 1 0.16613 0.180241 0.268311
39 1 0.0212555 0.265389 0.432395
40 1 0.13372 0.122005 0.600923
41 1 0.0312892 0.211648 0.783015
42 1 0.152972 0.137481 0.93183
43 1 0.0851308 0.620909 0.10539
44 1 0.177045 0.517008 0.286571
45 1 0.0163833 0.590847 0.433699
46 1 0.171876 0.473649 0.61031
47 1 0.0130341 0.541011 0.768107
48 1 0.159705 0.447439 0.943383
49 1 0.0796942 0.950986 0.0882572
50 1 0.179572 0.862275 0.268049
51 1 0.048619 0.926569 0.418091
52 1 0.113588 0.784451 0.612512
53 1 0.0368966 0.928531 0.772134
54 1 0.142535 0.798525 0.93116
55 2 0.346688 0.255751 0.0683122
56 2 0.375109 0.287284 0.152418
57 2 0.440986 0.30354 0.174895
58 2 0.389444 0.245052 0.0178159
59 2 0.49763 0.119564 0.225399
60 2 0.459396 0.113126 0.312053
61 2 0.493473 0.176254 0.353564
62 2 0.519979 0.179881 0.185368
63 2 0.432933 0.272308 0.398752
64 2 0.396607 0.252145 0.485381
65 2 0.331571 0.250271 0.498797
66 2 0.400296 0.276082 0.337026
67 2 0.433657 0.13951 0.555018
68 2 0.406419 0.11175 0.641061
69 2 0.459744 0.129645 0.692942
70 2 0.501198 0.165087 0.528397
71 2 0.385623 0.280724 0.707823
72 2 0.412061 0.295362 0.79154
73 2 0.385053 0.24932 0.846522
74 2 0.345799 0.213876 0.677131
75 2 0.48315 0.0997698 0.864395
76 2 0.500928 0.069573 0.94458
77 2 0.515653 0.108089 0.00502853
78 2 0.459839 0.147314 0.863205
79 2 0.42422 0.615682 0.0268961
80 2 0.460561 0.667044 0.107367
81 2 0.437838 0.633713 0.168501
82 2 0.355775 0.556704 0.0206924
83 2 0.481583 0.451315 0.227529
84 2 0.475035 0.455594 0.318226
85 2 0.487642 0.517537 0.350265
86 2 0.495905 0.507655 0.181528
87 2 0.419938 0.605468 0.395828
88 2 0.39204 0.566965 0.477248
89 2 0.362172 0.593563 0.523593
90 2 0.378417 0.62231 0.352596
91 2 0.545634 0.513874 0.570427
92 2 0.512773 0.480992 0.660566
93 2 0.440068 0.437666 0.67787
94 2 0.495082 0.510496 0.52147
95 2 0.354963 0.587282 0.707781
96 2 0.392591 0.621207 0.797606
97 2 0.363184 0.566122 0.849039
98 2 0.325576 0.512721 0.692672
99 2 0.480269 0.481198 0.87881
100 2 0.463058 0.51001 0.972142
101 2 0.480969 0.489774 0.0301793
102 2 0.533589 0.464835 0.873624
103 2 0.321113 0.86554 0.0566821
104 2 0.339597 0.903588 0.150516
105 2 0.4108 0.953045 0.163934
106 2 0.364169 0.909279 0.00228809
107 2 0.463885 0.766225 0.242125
108 2 0.472135 0.809439 0.341502
109 2 0.489316 0.87874 0.344488
110 2 0.479563 0.812296 0.186332
111 2 0.408094 0.931496 0.374198
112 2 0.372002 0.885139 0.46471
113 2 0.32616 0.896483 0.505016
114 2 0.379716 0.969737 0.346839
115 2 0.511757 0.839491 0.564624
116 2 0.525811 0.815378 0.652078
117 2 0.464428 0.772781 0.695485
118 2 0.444471 0.799566 0.532788
119 2 0.358691 0.898732 0.697542
120 2 0.396943 0.864528 0.776037
121 2 0.375267 0.867124 0.843748
122 2 0.367911 0.961911 0.712569
123 2 0.472925 0.807368 0.86676
124 2 0.475112 0.848118 0.958662
125 2 0.498375 0.827538 0.0160523
126 2 0.499355 0.761743 0.857445
127 2 0.656467 0.230436 0.0681832
128 2 0.676943 0.279449 0.160971
129 2 0.746095 0.307192 0.190408
130 2 0.711555 0.236788 0.0325257
131 2 0.796718 0.105347 0.217062
132 2 0.781015 0.09063 0.312665
133 2 0.818517 0.149491 0.357842
134 2 0.839602 0.171963 0.189415
135 2 0.748228 0.245209 0.393177
136 2 0.722081 0.262628 0.490702
137 2 0.688501 0.301447 0.496754
138 2 0.700891 0.231672 0.342497
139 2 0.81986 0.142755 0.53917
140 2 0.855533 0.159056 0.626169
141 2 0.810573 0.138949 0.682175
142 2 0.755947 0.134269 0.520969
143 2 0.71714 0.301469 0.748428
144 2 0.74288 0.273868 0.825836
145 2 0.707316 0.20841 0.858266
146 2 0.69742 0.253492 0.695181
147 2 0.78584 0.142937 0.904225
148 2 0.813254 0.151268 0.00253712
149 2 0.854714 0.124839 0.0229693
150 2 0.819017 0.117172 0.858689
151 2 0.787215 0.670966 0.0856733
152 2 0.771761 0.637004 0.172337
153 2 0.706154 0.57708 0.191244
154 2 0.752966 0.624366 0.0269599
155 2 0.822947 0.432043 0.243676
156 2 0.836047 0.484026 0.336077
157 2 0.857011 0.555044 0.335897
158 2 0.831937 0.473336 0.185111
159 2 0.721535 0.565506 0.387665
160 2 0.702129 0.560376 0.478076
161 2 0.664259 0.595614 0.503182
162 2 0.723453 0.61882 0.343672
163 2 0.759738 0.413409 0.559387
164 2 0.76132 0.423684 0.65816
165 2 0.804651 0.489715 0.685072
166 2 0.81831 0.459404 0.521507
167 2 0.711953 0.621302 0.72563
168 2 0.740939 0.633462 0.821745
169 2 0.708579 0.566096 0.857441
170 2 0.689908 0.556601 0.691777
171 2 0.783669 0.486221 0.908049
172 2 0.805987 0.494311 0.999299
173 2 0.862146 0.485012 0.0254196
174 2 0.818708 0.468549 0.859362
175 2 0.760147 0.931826 0.0273874
176 2 0.799188 0.948905 0.107588
177 2 0.766267 0.94134 0.173294
178 2 0.689489 0.900747 0.0174979
179 2 0.792151 0.773359 0.245068
180 2 0.818282 0.806977 0.33963
181 2 0.85332 0.881284 0.354849
182 2 0.83307 0.817013 0.192359
183 2 0.752607 0.927668 0.409114
184 2 0.718456 0.940046 0.497357
185 2 0.65968 0.94704 0.505356
186 2 0.713369 0.928799 0.352833
187 2 0.851808 0.83909 0.546964
188 2 0.865537 0.828341 0.63452
189 2 0.807007 0.809307 0.679658
190 2 0.787511 0.811506 0.51392
191 2 0.729593 0.960557 0.725738
192 2 0.735287 0.94738 0.831172
193 2 0.700409 0.882959 0.861007
194 2 0.68017 0.899382 0.691089
195 2 0.825839 0.767317 0.849817
196 2 0.87152 0.773056 0.933344
197 2 0.862772 0.797503 0.994943
198 2 0.784524 0.798869 0.844874
199 2 0.0954767 0.247814 0.0436168
200 2 0.112011 0.254959 0.127399
201 2 0.0653007 0.253071 0.181373
202 2 0.0369719 0.241204 0.00738983
203 2 0.150758 0.112505 0.211916
204 2 0.113993 0.0970216 0.302291
205 2 0.143224 0.154855 0.348246
206 2 0.177976 0.178928 0.179919
207 2 0.0820878 0.238536 0.403175
208 2 0.0616731 0.246363 0.494137
209 2 0.00779385 0.259225 0.519444
210 2 0.0556418 0.266106 0.354967
211 2 0.0560645 0.0548512 0.567917
212 2 0.070791 0.0778139 0.663499
213 2 0.142973 0.121791 0.685329
214 2 0.104018 0.099304 0.516131
215 2 0.0653208 0.291837 0.741404
216 2 0.0744494 0.285205 0.830839
217 2 0.0409288 0.221596 0.868268
218 2 0.0363819 0.233426 0.696184
219 2 0.232344 0.153601 0.893984
220 2 0.208251 0.143182 0.995208
221 2 0.149245 0.142797 0.0179965
222 2 0.17723 0.143584 0.848527
224 2 0.0184452 0.579006 0.169273
225 2 0.0900408 0.628859 0.191244
226 2 0.0557347 0.601403 0.022882
227 2 0.138357 0.46898 0.210623
228 2 0.125645 0.426454 0.311913
229 2 0.143705 0.475133 0.363356
230 2 0.19075 0.533569 0.196869
231 2 0.0854985 0.580351 0.417197
232 2 0.0621676 0.594556 0.503896
233 2 0.004503 0.606224 0.51475
234 2 0.0386223 0.570932 0.358971
235 2 0.0911982 0.457071 0.575915
236 2 0.106396 0.430647 0.669656
237 2 0.172001 0.448858 0.693575
238 2 0.146379 0.481066 0.531041
240 2 0.069159 0.623097 0.809777
241 2 0.0273205 0.563688 0.852106
242 2 0.012609 0.536814 0.682921
243 2 0.129356 0.461996 0.868953
244 2 0.10666 0.487114 0.954518
245 2 0.153664 0.493915 0.00684678
246 2 0.161261 0.418814 0.864378
248 2 0.0272111 0.916839 0.156982
249 2 0.0941965 0.970071 0.174696
250 2 0.0505158 0.902605 0.0158847
251 2 0.148392 0.788654 0.213543
252 2 0.128453 0.780983 0.309145
253 2 0.168144 0.835381 0.353327
254 2 0.177993 0.859928 0.186699
255 2 0.0335007 0.971726 0.353711
256 2 0.987028 0.954277 0.436661
257 2 0.00433191 0.928726 0.491666
258 2 0.0814311 0.949197 0.336948
259 2 0.199036 0.827241 0.582952
260 2 0.175651 0.80201 0.67692
261 2 0.104351 0.777551 0.700096
262 2 0.152661 0.807629 0.531192
263 2 0.983246 0.871815 0.707332
264 2 0.968032 0.85167 0.80607
265 2 0.00871021 0.898941 0.854802
266 2 0.0417259 0.934376 0.68354
267 2 0.151536 0.757183 0.856537
268 2 0.162788 0.732678 0.952705
269 2 0.150877 0.765567 0.0082959
270 2 0.12946 0.807297 0.848102
271 3 0.466846 0.269049 0.0900128
272 3 0.526028 0.241424 0.270491
273 3 0.314567 0.264444 0.399212
274 3 0.538018 0.157731 0.621406
275 3 0.332822 0.166486 0.768941
276 3 0.485619 0.177352 0.966194
277 3 0.34156 0.555725 0.124681
278 3 0.490121 0.566806 0.256436
279 3 0.329077 0.635393 0.442376
280 3 0.410455 0.455312 0.581836
281 3 0.337556 0.489174 0.788396
282 3 0.539327 0.451879 0.974195
283 3 0.442614 0.969494 0.0674954
284 3 0.510095 0.899546 0.245617
285 3 0.333424 0.975626 0.434703
286 3 0.394659 0.754477 0.620212
287 3 0.346286 0.939047 0.818122
288 3 0.526345 0.763669 0.955241
289 3 0.788596 0.295371 0.103779
290 3 0.868965 0.220315 0.283296
291 3 0.664929 0.292358 0.388415
292 3 0.71994 0.10651 0.614929
293 3 0.653803 0.167418 0.764679
294 3 0.866788 0.092507 0.928903
295 3 0.676595 0.554482 0.0899243
296 3 0.841354 0.556611 0.231036
297 3 0.6865 0.65709 0.423724
298 3 0.869491 0.525244 0.606508
299 3 0.680984 0.505949 0.785487
300 3 0.881312 0.458915 0.928948
301 3 0.668691 0.909378 0.123954
302 3 0.88524 0.903965 0.255214
303 3 0.634456 0.928469 0.400429
304 3 0.734658 0.778071 0.607598
305 3 0.649056 0.832252 0.768649
306 3 0.78441 0.817503 0.947379
307 3 0.993641 0.24478 0.105285
308 3 0.187802 0.227642 0.275135
309 3 0.992039 0.281839 0.420235
310 3 0.180183 0.154565 0.595798
311 3 0.00833457 0.164252 0.775858
312 3 0.111322 0.135749 0.923176
313 3 0.131818 0.65064 0.097458
314 3 0.206308 0.561147 0.302641
315 3 0.978688 0.592269 0.416322
316 3 0.218693 0.497661 0.600283
317 3 0.98899 0.494343 0.778735
318 3 0.184349 0.431217 0.96683
319 3 0.122374 0.985157 0.0728686
320 3 0.196834 0.90964 0.270272
321 3 0.0694272 0.902963 0.4353
322 3 0.0699401 0.777267 0.602421
323 3 0.0716664 0.974061 0.77805
324 3 0.135177 0.833948 0.944951
325 4 0.569825 0.0849037 0.0845666
326 4 0.586325 0.287414 0.117685
327 4 0.405885 0.110601 0.0941523
328 4 0.32185 0.337035 0.276324
329 4 0.324741 0.171595 0.26204
330 4 0.52097 0.35013 0.251159
331 4 0.53983 0.108027 0.437333
332 4 0.540166 0.286371 0.426001
333 4 0.35061 0.100503 0.43655
334 4 0.271297 0.278497 0.588499
335 4 0.296201 0.102422 0.611194
336 4 0.476664 0.300965 0.59552
337 4 0.533069 0.0587654 0.792091
338 4 0.54668 0.237843 0.761235
339 4 0.337898 0.0539108 0.75634
340 4 0.341464 0.302947 0.931778
341 4 0.314811 0.121287 0.920973
342 4 0.515911 0.300742 0.944169
343 4 0.583182 0.439451 0.0868568
344 4 0.572661 0.616818 0.119138
345 4 0.394965 0.427481 0.106305
346 4 0.338385 0.690585 0.294229
347 4 0.325164 0.491421 0.262876
348 4 0.522579 0.681036 0.25871
349 4 0.544327 0.435746 0.429696
350 4 0.533985 0.623132 0.418279
351 4 0.355308 0.427751 0.455468
352 4 0.296765 0.638867 0.596085
353 4 0.282426 0.434051 0.615376
354 4 0.468684 0.635528 0.602766
355 4 0.531534 0.38083 0.779532
356 4 0.529846 0.571469 0.770769
357 4 0.34456 0.373613 0.747554
358 4 0.329251 0.63521 0.936208
359 4 0.332365 0.447727 0.914225
360 4 0.506842 0.637865 0.952649
361 4 0.580106 0.769023 0.0859674
362 4 0.552803 0.932055 0.120228
363 4 0.401973 0.770581 0.103679
364 4 0.329709 0.0145427 0.277343
365 4 0.324774 0.828242 0.269925
366 4 0.510736 0.0137787 0.24703
367 4 0.540529 0.777188 0.435215
368 4 0.532465 0.955075 0.422904
369 4 0.365281 0.776764 0.454947
370 4 0.27489 0.941447 0.585728
371 4 0.299141 0.793977 0.625181
372 4 0.470115 0.979899 0.616023
373 4 0.527422 0.71576 0.780204
374 4 0.531226 0.9109 0.774016
375 4 0.341197 0.703194 0.753022
376 4 0.315331 0.968575 0.91995
377 4 0.333626 0.787043 0.920658
378 4 0.51055 0.971161 0.950323
379 4 0.900832 0.0724308 0.0776625
380 4 0.905294 0.276486 0.119281
381 4 0.711167 0.068661 0.107601
382 4 0.663156 0.346292 0.288833
383 4 0.668052 0.160816 0.265979
384 4 0.847753 0.347042 0.263823
385 4 0.861395 0.0981708 0.447291
386 4 0.862845 0.2825 0.42458
387 4 0.674374 0.0911855 0.44572
388 4 0.643343 0.323877 0.577979
389 4 0.62314 0.120137 0.625776
390 4 0.798355 0.304372 0.604183
391 4 0.85153 0.0483506 0.794464
392 4 0.863426 0.226391 0.777675
393 4 0.686167 0.0643922 0.75628
394 4 0.673837 0.311302 0.941775
395 4 0.675684 0.120613 0.931058
396 4 0.843152 0.297456 0.963195
397 4 0.918159 0.442412 0.0979591
398 4 0.896736 0.605012 0.123878
399 4 0.726937 0.439757 0.0986189
400 4 0.676906 0.701863 0.290011
401 4 0.656221 0.495665 0.268933
402 4 0.858394 0.683489 0.258412
403 4 0.864669 0.433329 0.43315
404 4 0.887579 0.620577 0.423569
405 4 0.696017 0.448376 0.443731
406 4 0.63194 0.650494 0.59043
407 4 0.612577 0.461146 0.615125
408 4 0.804249 0.641778 0.595978
409 4 0.857293 0.380684 0.795125
410 4 0.857951 0.578755 0.764228
411 4 0.69008 0.385728 0.749068
412 4 0.658993 0.632519 0.949718
413 4 0.660671 0.451832 0.912424
414 4 0.846151 0.638108 0.950993
415 4 0.907087 0.761831 0.0861287
416 4 0.913991 0.93817 0.119423
417 4 0.728469 0.76877 0.101713
418 4 0.653841 0.00507668 0.287515
419 4 0.666853 0.836977 0.260274
420 4 0.837857 0.00727204 0.263187
421 4 0.884501 0.77156 0.42372
422 4 0.877854 0.960057 0.4221
423 4 0.680869 0.764045 0.454936
424 4 0.603646 0.963075 0.599401
425 4 0.62611 0.788105 0.626077
426 4 0.800699 0.972625 0.590971
427 4 0.875107 0.742051 0.783633
428 4 0.842792 0.895815 0.767896
429 4 0.679756 0.714714 0.766807
430 4 0.662455 0.966629 0.933664
431 4 0.654604 0.777681 0.926081
432 4 0.842315 0.948064 0.9485
433 4 0.249486 0.10252 0.0799676
434 4 0.230447 0.278593 0.112637
435 4 0.0603328 0.0913544 0.0972456
436 4 0.972615 0.316198 0.291473
437 4 0.987653 0.163096 0.266014
438 4 0.168239 0.338488 0.264007
439 4 0.196289 0.0936528 0.438519
440 4 0.204257 0.272078 0.417502
441 4 0.0172727 0.103176 0.43816
442 4 0.953435 0.297816 0.591257
443 4 0.951296 0.124967 0.633632
444 4 0.125544 0.286001 0.592151
445 4 0.192851 0.0593897 0.761135
446 4 0.191679 0.224738 0.764483
447 4 0.00214784 0.0498212 0.749168
448 4 0.997115 0.316606 0.946939
449 4 0.998225 0.105897 0.921315
450 4 0.178692 0.305315 0.937282
451 4 0.245883 0.427156 0.0798157
452 4 0.248958 0.611111 0.126328
453 4 0.0490663 0.418646 0.118252
454 4 0.0277422 0.706286 0.277952
455 4 0.997326 0.486002 0.277958
456 4 0.189962 0.67356 0.263198
457 4 0.206204 0.434827 0.43423
458 4 0.214415 0.618956 0.430786
459 4 0.0196345 0.428001 0.450914
460 4 0.95444 0.64072 0.590717
461 4 0.952798 0.444028 0.630427
462 4 0.14082 0.631027 0.583409
463 4 0.195398 0.381512 0.786837
464 4 0.18923 0.562273 0.776198
465 4 0.0140484 0.374968 0.76136
466 4 0.989895 0.628737 0.93864
467 4 0.989656 0.457212 0.918581
468 4 0.178645 0.632182 0.962736
469 4 0.251653 0.761598 0.0924645
470 4 0.244385 0.952942 0.117105
471 4 0.0530615 0.755291 0.0982741
472 4 0.0108186 0.0230248 0.273489
474 4 0.183217 0.0188615 0.258345
475 4 0.198614 0.763079 0.443947
476 4 0.205425 0.9468 0.410188
477 4 0.027048 0.774278 0.448776
478 4 0.945379 0.963129 0.585767
479 4 0.959304 0.789624 0.61008
480 4 0.134766 0.96944 0.589245
481 4 0.180409 0.703311 0.777688
482 4 0.181843 0.902065 0.772356
483 4 0.010586 0.722854 0.759598
484 4 0.991614 0.95676 0.924992
485 4 0.987615 0.785934 0.929621
486 4 0.174653 0.967849 0.948938
487 5 0.415035 0.293362 0.140268
488 5 0.384454 0.256097 0.05747
489 5 0.488467 0.15713 0.315346
490 5 0.507112 0.16229 0.224308
491 5 0.362755 0.256499 0.469921
492 5 0.396537 0.267896 0.378914
493 5 0.449591 0.129023 0.651731
494 5 0.473623 0.142547 0.560617
495 5 0.391645 0.252576 0.804381
496 5 0.363663 0.236216 0.713348
497 5 0.501541 0.104129 0.964728
498 5 0.477407 0.128656 0.888355
499 5 0.429149 0.629896 0.126708
500 5 0.386891 0.586166 0.0473517
501 5 0.478239 0.495687 0.313087
502 5 0.491605 0.493879 0.221976
503 5 0.373168 0.592417 0.482935
504 5 0.387467 0.615909 0.392569
505 5 0.470095 0.460552 0.6474
506 5 0.502777 0.498757 0.559809
507 5 0.370101 0.577652 0.807884
508 5 0.341207 0.545626 0.721635
509 5 0.481223 0.486517 0.987738
510 5 0.510211 0.475245 0.900757
511 5 0.380205 0.930398 0.133817
512 5 0.351726 0.906415 0.0430564
513 5 0.481625 0.845383 0.317735
514 5 0.478272 0.80816 0.228745
515 5 0.350968 0.908685 0.469511
516 5 0.382997 0.950278 0.382485
517 5 0.481363 0.792434 0.657982
518 5 0.468814 0.807188 0.568234
519 5 0.373912 0.876054 0.802486
520 5 0.357494 0.92265 0.730585
521 5 0.490415 0.822069 0.974156
522 5 0.492002 0.786331 0.88585
523 5 0.720211 0.29192 0.155695
524 5 0.701263 0.250357 0.068567
525 5 0.811097 0.13414 0.317808
526 5 0.822999 0.149024 0.225601
527 5 0.703735 0.282807 0.46886
528 5 0.713631 0.250113 0.381147
529 5 0.813038 0.136536 0.639824
530 5 0.78302 0.141738 0.554295
531 5 0.706995 0.232582 0.825042
532 5 0.706625 0.25993 0.73683
533 5 0.83763 0.133483 0.988366
534 5 0.811497 0.124228 0.898984
535 5 0.731662 0.603816 0.159714
536 5 0.758125 0.630996 0.0690475
537 5 0.842916 0.518606 0.311431
538 5 0.832785 0.471964 0.227662
539 5 0.688374 0.590187 0.472784
540 5 0.721991 0.604423 0.383532
541 5 0.795015 0.465008 0.649627
542 5 0.801854 0.44784 0.560976
543 5 0.71517 0.588753 0.821031
544 5 0.704597 0.579354 0.728322
545 5 0.837861 0.48378 0.991644
546 5 0.812258 0.471238 0.901022
547 5 0.762814 0.939057 0.130821
548 5 0.721153 0.917638 0.0476738
549 5 0.838388 0.849164 0.325114
550 5 0.825277 0.814246 0.234298
551 5 0.68343 0.938333 0.477104
552 5 0.717685 0.931094 0.395239
553 5 0.821596 0.812833 0.63958
554 5 0.807727 0.810195 0.54984
555 5 0.709119 0.90356 0.823196
556 5 0.699697 0.916724 0.728541
557 5 0.849816 0.790439 0.954158
558 5 0.8061 0.786026 0.871799
559 5 0.0725222 0.249665 0.140034
560 5 0.0547626 0.243698 0.04587
561 5 0.14511 0.139827 0.309445
562 5 0.165593 0.156349 0.216721
563 5 0.025335 0.249694 0.485745
564 5 0.0560222 0.256505 0.396195
565 5 0.112991 0.108686 0.653689
566 5 0.0933857 0.0929106 0.557505
567 5 0.0519612 0.240335 0.829598
568 5 0.0448383 0.247274 0.736675
569 5 0.174707 0.149912 0.983455
570 5 0.189577 0.143049 0.888822
571 5 0.0612082 0.608001 0.159364
572 5 0.0448769 0.591735 0.0639585
573 5 0.147802 0.470156 0.321634
574 5 0.166958 0.507729 0.229605
575 5 0.0248225 0.591811 0.487956
576 5 0.0495934 0.579763 0.40012
577 5 0.150042 0.45186 0.659724
578 5 0.13563 0.474786 0.572394
579 5 0.0362969 0.580304 0.812536
580 5 0.0290924 0.563722 0.71686
581 5 0.136686 0.47629 0.9687
582 5 0.150998 0.444111 0.889039
583 5 0.0662841 0.949815 0.142053
584 5 0.0388586 0.907723 0.0552387
585 5 0.160012 0.824272 0.312146
586 5 0.168611 0.8329 0.220412
587 5 0.0152576 0.941171 0.451059
588 5 0.0517261 0.947039 0.3657
589 5 0.132227 0.785044 0.667459
590 5 0.155505 0.802467 0.573093
591 5 0.00485371 0.891451 0.812796
592 5 0.0205266 0.909862 0.717857
593 5 0.15498 0.765094 0.965961
594 5 0.142019 0.786108 0.875793
595 6 0.296831 0.0311744 0.0199944
596 6 0.295095 0.0713633 0.183088
597 6 0.26646 0.0715038 0.348418
598 6 0.24164 0.023242 0.511006
599 6 0.224063 0.990309 0.67737
600 6 0.253584 0.0135856 0.853863
601 6 0.299105 0.364576 0.0109038
602 6 0.282581 0.383326 0.184763
603 6 0.277026 0.399054 0.357687
604 6 0.237435 0.358038 0.513838
605 6 0.218274 0.315692 0.683647
606 6 0.262962 0.331212 0.850114
607 6 0.301769 0.697632 0.0250844
608 6 0.300774 0.724758 0.189223
609 6 0.264867 0.737505 0.358759
610 6 0.25588 0.713 0.523279
611 6 0.223058 0.659486 0.679359
612 6 0.257907 0.671696 0.854838
613 6 0.615557 0.0182271 0.0228749
614 6 0.622885 0.0583423 0.184426
615 6 0.596885 0.0616101 0.349487
616 6 0.562487 0.0353778 0.525498
617 6 0.574042 0.0140008 0.692945
618 6 0.604755 0.0103517 0.856132
619 6 0.628447 0.374116 0.0174604
620 6 0.633637 0.40627 0.185413
621 6 0.611878 0.399532 0.356047
622 6 0.579263 0.380665 0.518072
623 6 0.579 0.345191 0.678187
624 6 0.602034 0.328938 0.849412
625 6 0.626898 0.703237 0.0195365
626 6 0.635584 0.736439 0.186597
627 6 0.609685 0.751201 0.356154
628 6 0.563496 0.705315 0.522835
629 6 0.577392 0.674719 0.686281
630 6 0.58845 0.660525 0.857733
631 6 0.958861 0.0112171 0.0214106
632 6 0.959852 0.0619652 0.187735
633 6 0.919303 0.0730088 0.351355
634 6 0.912065 0.0381322 0.52409
635 6 0.888841 0.00614501 0.688425
636 6 0.923305 0.992657 0.849753
637 6 0.956116 0.37816 0.0250576
638 6 0.949334 0.377945 0.1909
639 6 0.933244 0.394141 0.35683
640 6 0.906213 0.374979 0.52569
641 6 0.893541 0.323022 0.688822
642 6 0.924758 0.327624 0.857377
643 6 0.957562 0.694315 0.0191687
644 6 0.962027 0.729641 0.185267
645 6 0.955645 0.746711 0.350122
646 6 0.908919 0.70311 0.513249
647 6 0.907289 0.686219 0.685394
648 6 0.929595 0.676892 0.8522
ITEM: TIMESTEP
500
ITEM: NUMBER OF ATOMS
648
ITEM: BOX BOUNDS xy xz yz pp pp pp
-2.2829786591544163e+01 2.2269784030751119e+01 -1.4613173288144184e+01
-2.2321219696709953e+00 2.4378051971344945e+01 1.0621717273526645e+00
-1.8262971789568994e+00 2.3731298178956923e+01 9.5193100167397438e-01
ITEM: ATOMS id type xs ys zs
473 4 0.964421 0.805372 0.260012
247 2 0.0687405 0.887941 0.106855
223 2 0.0321498 0.600425 0.0995914
239 2 0.0623285 0.606474 0.723013
1 1 0.397978 0.246163 0.102731
2 1 0.481273 0.177581 0.289471
3 1 0.353759 0.283059 0.446626
4 1 0.485363 0.136147 0.589778
5 1 0.355104 0.219941 0.775849
6 1 0.498388 0.144761 0.914185
7 1 0.383221 0.605165 0.0801049
8 1 0.491414 0.509314 0.264569
9 1 0.387102 0.614598 0.379706
10 1 0.465117 0.486445 0.614776
11 1 0.350279 0.516767 0.757648
12 1 0.496329 0.445197 0.928464
13 1 0.422273 0.95643 0.10821
14 1 0.518227 0.866258 0.300012
15 1 0.346775 0.907985 0.469261
16 1 0.440179 0.765105 0.59057
17 1 0.344442 0.890965 0.789831
18 1 0.506389 0.810127 0.94481
19 1 0.755356 0.276585 0.134209
20 1 0.853134 0.194863 0.300699
21 1 0.71941 0.328619 0.383882
22 1 0.782458 0.113791 0.636712
23 1 0.68565 0.197747 0.736892
24 1 0.850556 0.171202 0.953529
25 1 0.706204 0.588236 0.145072
26 1 0.845133 0.511046 0.205299
27 1 0.694946 0.612625 0.487864
28 1 0.835631 0.475294 0.622914
29 1 0.706289 0.548004 0.808319
30 1 0.81775 0.433708 0.91845
31 1 0.682877 0.902655 0.0778003
32 1 0.849246 0.849789 0.223309
33 1 0.724829 0.968257 0.422253
34 1 0.75642 0.78803 0.578149
35 1 0.69525 0.883015 0.782511
36 1 0.830166 0.812303 0.908552
37 1 0.0606565 0.280047 0.0875572
38 1 0.179964 0.196201 0.290465
39 1 0.0256046 0.290137 0.428467
40 1 0.161659 0.169767 0.591137
41 1 0.0528311 0.219726 0.746683
42 1 0.125979 0.0896457 0.931731
43 1 0.084141 0.583382 0.128841
44 1 0.178571 0.519045 0.247844
45 1 0.0161005 0.595992 0.415699
46 1 0.14518 0.457274 0.634565
47 1 0.0402352 0.553137 0.78182
48 1 0.192166 0.479738 0.963348
49 1 0.0681876 0.959783 0.119503
50 1 0.190411 0.844226 0.27817
51 1 0.0205666 0.888873 0.497364
52 1 0.11824 0.787359 0.623452
53 1 0.033817 0.915534 0.762968
54 1 0.186461 0.831405 0.934262
55 2 0.384995 0.287425 0.0464816
56 2 0.380646 0.302181 0.126587
57 2 0.390877 0.271556 0.176163
58 2 0.372531 0.229357 0.026107
59 2 0.495481 0.136683 0.231105
60 2 0.479885 0.112781 0.31792
61 2 0.487631 0.159595 0.36518
62 2 0.480704 0.180349 0.207759
63 2 0.376898 0.258314 0.383656
64 2 0.35476 0.212031 0.466025
65 2 0.344152 0.238942 0.515721
66 2 0.367525 0.307822 0.366871
67 2 0.434558 0.113556 0.529118
68 2 0.405575 0.0858352 0.61127
69 2 0.447145 0.104797 0.659774
70 2 0.499555 0.143247 0.510194
71 2 0.410989 0.256679 0.716727
72 2 0.416691 0.295844 0.787222
73 2 0.377666 0.263949 0.841577
74 2 0.354105 0.20574 0.694687
75 2 0.500323 0.0866618 0.871518
76 2 0.481925 0.0801643 0.955182
77 2 0.481773 0.128131 0.992153
78 2 0.507438 0.136663 0.834805
79 2 0.465768 0.648381 0.069973
80 2 0.418345 0.658644 0.14122
81 2 0.357744 0.6094 0.158306
82 2 0.436299 0.613401 0.0192917
83 2 0.487325 0.452048 0.215395
84 2 0.472762 0.443271 0.313859
85 2 0.487292 0.495723 0.346387
86 2 0.498707 0.509205 0.185147
87 2 0.368189 0.554811 0.332845
88 2 0.314429 0.547174 0.398684
89 2 0.326343 0.596532 0.437616
90 2 0.43437 0.596162 0.3363
91 2 0.495494 0.454011 0.564072
92 2 0.517371 0.466281 0.642406
93 2 0.487487 0.477667 0.691422
94 2 0.451881 0.470035 0.536596
95 2 0.378307 0.572425 0.696282
96 2 0.37326 0.591566 0.779294
97 2 0.35102 0.546474 0.830241
98 2 0.328952 0.508953 0.683055
99 2 0.502794 0.504596 0.876851
100 2 0.515786 0.512408 0.970745
101 2 0.517543 0.464309 0.00518571
102 2 0.494085 0.450138 0.848604
103 2 0.349239 0.944286 0.0872619
104 2 0.379898 0.970568 0.167254
105 2 0.440746 0.996002 0.180922
106 2 0.371219 0.918023 0.0457948
107 2 0.475684 0.791664 0.272399
108 2 0.440218 0.831178 0.325978
109 2 0.478029 0.894327 0.343005
110 2 0.542746 0.819813 0.262739
111 2 0.424893 0.919901 0.464864
112 2 0.382684 0.938541 0.540428
113 2 0.337938 0.9521 0.526018
114 2 0.386337 0.879792 0.423859
115 2 0.497105 0.800473 0.527146
116 2 0.51486 0.800966 0.618897
117 2 0.46965 0.770802 0.667644
118 2 0.436631 0.779539 0.51207
119 2 0.385722 0.856531 0.753787
120 2 0.416114 0.91582 0.816616
121 2 0.376415 0.934253 0.85283
122 2 0.321724 0.826961 0.742134
123 2 0.447302 0.80936 0.904677
124 2 0.44264 0.796598 0.987582
125 2 0.498415 0.8249 0.0231986
126 2 0.486607 0.794474 0.86629
127 2 0.72 0.27106 0.0634108
128 2 0.680957 0.262297 0.146297
129 2 0.705422 0.251269 0.201513
130 2 0.782035 0.295307 0.0536526
131 2 0.860354 0.14418 0.25181
132 2 0.857127 0.133963 0.340459
133 2 0.846488 0.17532 0.377599
134 2 0.856713 0.189605 0.218599
135 2 0.761582 0.293623 0.408073
136 2 0.72406 0.323406 0.464321
137 2 0.676608 0.336693 0.440617
138 2 0.754729 0.295073 0.342637
139 2 0.853999 0.13686 0.600211
140 2 0.831579 0.100433 0.682045
141 2 0.772081 0.0790024 0.712959
142 2 0.820952 0.1581 0.565109
143 2 0.729193 0.252885 0.673441
144 2 0.766143 0.226612 0.754063
145 2 0.716734 0.18779 0.79898
146 2 0.670702 0.202752 0.658676
147 2 0.786738 0.173496 0.929571
148 2 0.791276 0.152886 0.0116802
149 2 0.844789 0.152382 0.0331678
150 2 0.821169 0.173372 0.878492
151 2 0.755076 0.595108 0.0792067
152 2 0.783836 0.641286 0.151534
153 2 0.746193 0.636717 0.20589
154 2 0.687736 0.556182 0.0745454
155 2 0.790561 0.452029 0.159275
156 2 0.769769 0.47236 0.243192
157 2 0.813114 0.519411 0.277738
158 2 0.852278 0.477907 0.137002
159 2 0.722535 0.567359 0.453629
160 2 0.66031 0.533432 0.509762
161 2 0.650709 0.572231 0.552486
162 2 0.753707 0.630415 0.427911
163 2 0.754943 0.432231 0.604218
164 2 0.784818 0.443039 0.690614
165 2 0.8502 0.475026 0.698112
166 2 0.795575 0.463356 0.552477
167 2 0.737276 0.619679 0.768324
168 2 0.70827 0.605034 0.861871
169 2 0.680036 0.543851 0.884214
170 2 0.734711 0.570911 0.732172
171 2 0.85599 0.510159 0.883434
172 2 0.821471 0.494929 0.962491
173 2 0.791307 0.433015 0.991227
174 2 0.856906 0.464886 0.845816
175 2 0.740462 0.935522 0.0123402
176 2 0.756758 0.929345 0.0975139
177 2 0.715549 0.892407 0.147764
178 2 0.683396 0.934639 1.00897
179 2 0.797866 0.832302 0.161723
180 2 0.779256 0.781523 0.245291
181 2 0.826651 0.788381 0.279763
182 2 0.854614 0.890501 0.156164
183 2 0.696698 0.943802 0.350316
184 2 0.642777 0.929031 0.420537
185 2 0.665232 0.941948 0.480642
186 2 0.760785 0.987837 0.349519
187 2 0.802622 0.861356 0.544994
188 2 0.79908 0.843124 0.633772
189 2 0.748164 0.782899 0.655209
190 2 0.766991 0.81635 0.501603
191 2 0.698617 0.947837 0.747303
192 2 0.691996 0.935525 0.830506
193 2 0.676285 0.879183 0.863706
194 2 0.698738 0.90411 0.704879
195 2 0.850428 0.7832 0.842636
196 2 0.863314 0.769573 0.921161
197 2 0.838367 0.777547 0.979678
198 2 0.836809 0.832986 0.830496
199 2 0.119816 0.285994 0.0353398
200 2 0.117326 0.271284 0.122844
201 2 0.0686012 0.26782 0.163086
202 2 0.0697433 0.285748 0.00627185
203 2 0.181386 0.131906 0.262379
204 2 0.187672 0.149774 0.346535
205 2 0.184469 0.200413 0.369787
206 2 0.184474 0.170713 0.213143
207 2 0.0437497 0.244712 0.377899
208 2 0.0321921 0.231012 0.462808
209 2 0.0223904 0.270691 0.5064
210 2 0.0355554 0.290783 0.34587
211 2 0.0891659 0.131552 0.564098
212 2 0.0994539 0.119355 0.645891
213 2 0.15665 0.155329 0.671557
214 2 0.13113 0.166648 0.517541
215 2 0.0706288 0.295824 0.73121
216 2 0.0451242 0.256441 0.80952
217 2 0.02299 0.189395 0.818009
218 2 0.0787288 0.266171 0.676628
219 2 0.206373 0.125075 0.908117
220 2 0.175844 0.121667 0.991493
221 2 0.110077 0.0910305 0.0107742
222 2 0.16671 0.090696 0.862075
224 2 0.040521 0.600187 0.185554
225 2 0.0941689 0.601226 0.209128
226 2 0.0692632 0.58874 0.0551711
227 2 0.151389 0.441912 0.243617
228 2 0.13478 0.479988 0.312632
229 2 0.168432 0.540376 0.324476
230 2 0.168794 0.474519 0.183061
231 2 0.0936438 0.623611 0.386512
232 2 0.0589062 0.586571 0.477498
233 2 1.00179 0.573702 0.498801
234 2 0.054456 0.62043 0.341617
235 2 0.0786826 0.402136 0.594645
236 2 0.090238 0.404843 0.686714
237 2 0.146257 0.440305 0.713888
238 2 0.121918 0.455608 0.559934
240 2 0.100604 0.624395 0.804719
241 2 0.0726972 0.581133 0.853868
242 2 0.0140924 0.544786 0.707941
243 2 0.135463 0.438639 0.910739
244 2 0.123426 0.481165 0.971234
245 2 0.165285 0.512705 0.0188064
246 2 0.190794 0.443307 0.891455
248 2 0.0243002 0.905566 0.179038