ITEM: TIMESTEP
500
ITEM: NUMBER OF ATOMS
648
ITEM: BOX BOUNDS xy xz yz pp pp pp
-1.9485500999999999e+01 1.9486000000000001e+01 -1.2990500000000001e+01
-6.5310400000000002e-01 2.1847103000000001e+01 0.0000000000000000e+00
-9.0100000000000002e-01 2.2806000999999998e+01 0.0000000000000000e+00
ITEM: ATOMS id type xs ys zs
1 1 0.40058 0.261148 0.106269
2 1 0.507664 0.177591 0.268467
3 1 0.371344 0.27997 0.433521
4 1 0.505407 0.132533 0.584573
5 1 0.375205 0.218399 0.796022
6 1 0.46262 0.118576 0.938412
7 1 0.36623 0.592592 0.100852
8 1 0.507233 0.498797 0.268915
9 1 0.351128 0.595905 0.439552
10 1 0.45696 0.475527 0.612383
11 1 0.382932 0.56732 0.774088
12 1 0.514063 0.491493 0.941806
13 1 0.407142 0.938862 0.104337
14 1 0.498871 0.831765 0.26965
15 1 0.357629 0.919264 0.433927
16 1 0.460392 0.799259 0.62562
17 1 0.366476 0.926564 0.755627
18 1 0.488042 0.789215 0.929405
19 1 0.709574 0.257127 0.0946369
20 1 0.824263 0.174949 0.268412
21 1 0.732026 0.269811 0.440105
22 1 0.836619 0.140281 0.600241
23 1 0.674367 0.233114 0.75463
24 1 0.813808 0.168402 0.928484
25 1 0.701778 0.607652 0.115701
26 1 0.842366 0.50526 0.268068
27 1 0.681333 0.594631 0.450913
28 1 0.838132 0.462438 0.597831
29 1 0.683084 0.564543 0.770549
30 1 0.832877 0.505994 0.924105
31 1 0.678432 0.901022 0.112267
32 1 0.819853 0.842721 0.27847
33 1 0.714222 0.93156 0.426813
34 1 0.788474 0.794789 0.599277
35 1 0.709681 0.925708 0.760224
36 1 0.841354 0.840558 0.916507
37 1 0.0217608 0.25811 0.0987301
38 1 0.149386 0.153971 0.251485
39 1 0.0224321 0.249034 0.428243
40 1 0.131632 0.128348 0.603579
41 1 0.046127 0.239139 0.760084
42 1 0.15791 0.163724 0.946174
43 1 0.0506284 0.623736 0.103568
44 1 0.164666 0.502884 0.259225
45 1 0.0303354 0.598323 0.450991
46 1 0.124463 0.452681 0.613664
47 1 0.0560482 0.596573 0.761465
48 1 0.15303 0.491226 0.927894
49 1 0.0268648 0.92977 0.0939512
50 1 0.145726 0.831135 0.278733
51 1 0.0384489 0.907338 0.428813
52 1 0.130452 0.810162 0.609688
53 1 0.0504924 0.953671 0.758098
54 1 0.146695 0.796602 0.931116
55 2 0.353091 0.256771 0.0310575
56 2 0.316499 0.241272 0.127498
57 2 0.359552 0.247507 0.183321
58 2 0.42786 0.293362 0.0253364
59 2 0.500777 0.110614 0.215323
60 2 0.469236 0.0948112 0.30283
61 2 0.494489 0.150387 0.350625
62 2 0.521909 0.175967 0.182339
63 2 0.356934 0.209294 0.37942
64 2 0.356167 0.205923 0.479496
65 2 0.359138 0.262515 0.516764
66 2 0.37362 0.273425 0.34766
67 2 0.446577 0.131921 0.527297
68 2 0.454784 0.164676 0.620125
69 2 0.515215 0.17719 0.659072
70 2 0.47001 0.0802787 0.52119
71 2 0.391149 0.27044 0.723493
72 2 0.389288 0.299175 0.818815
73 2 0.382688 0.258971 0.876078
74 2 0.363415 0.197552 0.7139
75 2 0.501741 0.165415 0.864129
76 2 0.542798 0.187756 0.954035
77 2 0.503648 0.150572 0.0143475
78 2 0.443036 0.099528 0.858476
79 2 0.412211 0.591669 0.0270676
80 2 0.42949 0.567555 0.112196
81 2 0.396735 0.570552 0.173129
82 2 0.348995 0.591548 0.0167827
83 2 0.442221 0.445781 0.212692
84 2 0.423667 0.462084 0.293545
85 2 0.472854 0.488983 0.349771
86 2 0.507344 0.495644 0.182949
87 2 0.382204 0.577267 0.364427
88 2 0.38804 0.543875 0.457629
89 2 0.369613 0.573647 0.514558
90 2 0.345089 0.613934 0.356283
91 2 0.482544 0.433634 0.555252
92 2 0.481093 0.419035 0.652917
93 2 0.460849 0.452857 0.696596
94 2 0.45282 0.470414 0.522445
95 2 0.392001 0.632758 0.719168
96 2 0.383032 0.633413 0.826695
97 2 0.373851 0.573587 0.859229
98 2 0.367809 0.567116 0.687644
99 2 0.445738 0.436642 0.887822
100 2 0.437235 0.42611 0.98275
101 2 0.50596 0.454248 0.016897
102 2 0.509164 0.485589 0.855011
103 2 0.319528 0.881477 0.0811462
104 2 0.354926 0.892545 0.173455
105 2 0.425711 0.937041 0.19045
106 2 0.364195 0.920871 0.0260991
107 2 0.452425 0.769739 0.207652
108 2 0.444916 0.748442 0.29594
109 2 0.480306 0.796812 0.35193
110 2 0.490223 0.836927 0.182935
111 2 0.424161 0.90017 0.419248
112 2 0.402703 0.918675 0.508214
113 2 0.343761 0.929773 0.517543
114 2 0.387374 0.903261 0.358672
115 2 0.486673 0.790886 0.543293
116 2 0.540871 0.802893 0.623986
117 2 0.506905 0.795681 0.690251
118 2 0.423863 0.791902 0.545053
119 2 0.340401 0.861283 0.694717
120 2 0.360906 0.851748 0.797219
121 2 0.363967 0.902265 0.840076
122 2 0.368821 0.929332 0.669323
123 2 0.476657 0.861482 0.90389
124 2 0.499742 0.851486 0.990563
125 2 0.499233 0.791377 0.0170061
126 2 0.481068 0.820595 0.850966
127 2 0.754439 0.347637 0.0729211
128 2 0.737603 0.310176 0.162439
129 2 0.707061 0.234743 0.177963
130 2 0.726114 0.299299 0.0172855
131 2 0.811194 0.119013 0.20252
132 2 0.786958 0.0884376 0.293181
133 2 0.804741 0.13715 0.348711
134 2 0.831252 0.187405 0.180502
135 2 0.653698 0.20489 0.403434
136 2 0.690635 0.198434 0.489559
137 2 0.745045 0.260624 0.525174
138 2 0.695895 0.260875 0.361138
139 2 0.788452 0.163073 0.551282
140 2 0.769114 0.150521 0.64116
141 2 0.799705 0.12085 0.682317
142 2 0.826206 0.135619 0.514223
143 2 0.745467 0.26228 0.697875
144 2 0.748957 0.241565 0.795786
145 2 0.694624 0.227752 0.839554
146 2 0.682972 0.246815 0.66793
147 2 0.808783 0.097951 0.886605
148 2 0.819715 0.105711 0.979705
149 2 0.824677 0.162426 0.0156268
150 2 0.788395 0.136537 0.845902
151 2 0.751998 0.603822 0.0501539
152 2 0.762435 0.582193 0.144922
153 2 0.723938 0.595581 0.19289
154 2 0.707205 0.633444 0.0325391
155 2 0.826504 0.430085 0.221963
156 2 0.803277 0.430367 0.318282
157 2 0.828156 0.494649 0.353619
158 2 0.84081 0.491399 0.184149
159 2 0.696047 0.562636 0.375803
160 2 0.70389 0.529656 0.466897
161 2 0.701395 0.563257 0.52524
162 2 0.664692 0.60666 0.369575
163 2 0.757325 0.448396 0.569009
164 2 0.782956 0.459489 0.661526
165 2 0.840525 0.455361 0.686332
166 2 0.799439 0.449167 0.517696
167 2 0.729343 0.569963 0.701571
168 2 0.758137 0.557323 0.786628
169 2 0.716366 0.552306 0.842341
170 2 0.663881 0.566456 0.686028
171 2 0.814103 0.421368 0.897846
172 2 0.861201 0.474282 -0.0091909
173 2 0.850735 0.530187 0.00716613
174 2 0.809609 0.458741 0.845873
175 2 0.745653 0.968822 0.0641893
176 2 0.752402 0.958826 0.164248
177 2 0.699587 0.905426 0.199979
178 2 0.688926 0.919528 0.0235208
179 2 0.812708 0.793932 0.210056
180 2 0.79642 0.754211 0.295364
181 2 0.798687 0.79655 0.351947
182 2 0.835938 0.865286 0.19319
183 2 0.631635 0.869958 0.406466
184 2 0.678351 0.859946 0.488965
185 2 0.74342 0.914592 0.501811
186 2 0.667504 0.924186 0.355301
187 2 0.835665 0.809887 0.520365
188 2 0.876827 0.839333 0.623568
189 2 0.826213 0.812838 0.676483
190 2 0.766222 0.775515 0.514383
191 2 0.731821 0.865002 0.731618
192 2 0.688484 0.860977 0.822786
193 2 0.677873 0.916975 0.838964
194 2 0.732809 0.91346 0.682012
195 2 0.782575 0.751757 0.897142
196 2 0.794524 0.783808 0.981741
197 2 0.838386 0.853242 0.00432022
198 2 0.816291 0.794674 0.84117
199 2 0.0939576 0.325091 0.053333
200 2 0.0921457 0.303997 0.152897
201 2 0.028123 0.255085 0.185273
202 2 0.0293227 0.287892 0.0197005
203 2 0.219307 0.173563 0.196015
204 2 0.224804 0.196311 0.293254
205 2 0.171047 0.156585 0.337624
206 2 0.153033 0.142979 0.165194
207 2 0.0800364 0.227468 0.390181
208 2 0.0660762 0.224681 0.486488
209 2 0.0236264 0.249744 0.5149
210 2 0.0437667 0.240374 0.342088
211 2 0.18755 0.15814 0.532114
212 2 0.220417 0.171422 0.624843
213 2 0.171821 0.131441 0.678765
214 2 0.115196 0.130016 0.516105
215 2 0.0571137 0.304942 0.702453
216 2 0.0810021 0.320317 0.797638
217 2 0.0697829 0.268405 0.843882
218 2 0.0281447 0.236079 0.674483
219 2 0.217038 0.136821 0.915066
220 2 0.204578 0.148778 0.0102243
221 2 0.161262 0.172818 0.0343044
222 2 0.181507 0.150282 0.8663
223 2 0.0963227 0.586557 0.0654548
224 2 0.0749158 0.574406 0.155729
225 2 0.0237836 0.58943 0.184108
226 2 0.0667529 0.617312 0.0207622
227 2 0.153924 0.453097 0.18855
228 2 0.118239 0.41235 0.272583
229 2 0.144101 0.451769 0.331309
230 2 0.178783 0.525874 0.17383
231 2 0.0587538 0.567769 0.386207
232 2 0.0730629 0.551032 0.472865
233 2 0.0506066 0.572265 0.529729
234 2 0.0256323 0.607924 0.363035
235 2 0.174693 0.469194 0.539574
236 2 0.207366 0.465553 0.635081
237 2 0.158211 0.43815 0.689731
238 2 0.110793 0.468846 0.528479
239 2 0.98367 0.521606 0.732497
240 2 -0.00738774 0.55308 0.821901
241 2 0.0584674 0.606204 0.849797
242 2 0.0255597 0.568534 0.679458
243 2 0.137064 0.41645 0.881273
244 2 0.167491 0.430765 0.977612
245 2 0.156283 0.479725 0.0137573
246 2 0.161075 0.478087 0.841255
247 2 0.0898512 0.941869 0.0367803
248 2 0.108922 0.961685 0.130441
249 2 0.0549144 0.956916 0.1774
250 2 0.0220729 0.902448 0.00949051
251 2 0.157583 0.77378 0.225428
252 2 0.141261 0.758061 0.31753
253 2 0.130879 0.802867 0.362099
254 2 0.15593 0.830475 0.191739
255 2 0.0465807 0.990047 0.413562
256 2 0.0515463 0.957625 0.503059
257 2 0.0399377 0.889952 0.511999
258 2 0.031564 0.944505 0.356759
259 2 0.171602 0.804277 0.535346
260 2 0.211825 0.821107 0.620866
261 2 0.179319 0.825883 0.682906
262 2 0.10007 0.789923 0.529616
263 2 0.0470873 0.879865 0.72108
264 2 0.0291267 0.885067 0.812804
265 2 0.0164453 0.938329 0.838323
266 2 0.0667207 0.940504 0.677759
267 2 0.235485 0.834523 0.903693
268 2 0.207627 0.818467 -0.00562749
269 2 0.137016 0.801664 0.0150467
270 2 0.183143 0.807568 0.852269
271 3 0.444326 0.273537 0.121873
272 3 0.528437 0.225295 0.272224
273 3 0.381983 0.325626 0.437914
274 3 0.543449 0.126211 0.584021
275 3 0.368769 0.176178 0.810547
276 3 0.428258 0.0775959 0.956619
277 3 0.32941 0.594517 0.11976
278 3 0.552141 0.533384 0.277966
279 3 0.321174 0.609207 0.457062
280 3 0.43339 0.498955 0.621639
281 3 0.375524 0.522685 0.777799
282 3 0.561714 0.520314 0.942016
283 3 0.450561 0.966455 0.0860157
284 3 0.530272 0.877606 0.27945
285 3 0.31835 0.919411 0.419251
286 3 0.428771 0.806334 0.648978
287 3 0.373912 0.970918 0.762132
288 3 0.495423 0.753803 0.915626
289 3 0.691766 0.213617 0.0758912
290 3 0.839369 0.219109 0.284547
291 3 0.767179 0.315082 0.433702
292 3 0.868436 0.126102 0.608971
293 3 0.62711 0.208788 0.762575
294 3 0.807807 0.20656 0.925617
295 3 0.66698 0.616328 0.128662
296 3 0.857755 0.552327 0.267751
297 3 0.673685 0.628533 0.468611
298 3 0.87985 0.465164 0.587217
299 3 0.647289 0.569302 0.788005
300 3 0.829041 0.543865 0.911433
301 3 0.634377 0.862625 0.109977
302 3 0.82604 0.883664 0.296366
303 3 0.756223 0.969091 0.414238
304 3 0.743423 0.780552 0.612111
305 3 0.706702 0.963603 0.745927
306 3 0.870473 0.885083 0.901238
307 3 0.97657 0.221508 0.0990303
308 3 0.102026 0.133544 0.257979
309 3 0.990767 0.263916 0.421986
310 3 0.0870458 0.109603 0.619996
311 3 0.0436507 0.19645 0.762587
312 3 0.126687 0.178491 0.936754
313 3 0.0252381 0.64617 0.10003
314 3 0.188875 0.546938 0.277155
315 3 0.00731726 0.621257 0.464156
316 3 0.0851233 0.451492 0.63013
317 3 0.0977831 0.633818 0.747892
318 3 0.161632 0.536422 0.92817
319 3 0.979706 0.912967 0.0980689
320 3 0.147455 0.873325 0.283377
321 3 0.032573 0.866711 0.410422
322 3 0.0912036 0.807276 0.628429
323 3 0.0545021 0.997038 0.75563
324 3 0.100883 0.782767 0.921843
325 4 0.571286 0.0896026 0.0985202
326 4 0.571925 0.278958 0.108272
327 4 0.375664 0.0840183 0.0954852
328 4 0.313582 0.323066 0.272198
329 4 0.321973 0.150113 0.275552
330 4 0.504305 0.333133 0.26021
331 4 0.555632 0.0817391 0.444564
332 4 0.554365 0.260022 0.425522
333 4 0.356512 0.0926882 0.445293
334 4 0.310777 0.304107 0.589873
335 4 0.316118 0.124085 0.608757
336 4 0.501432 0.324834 0.616819
337 4 0.528764 0.0644081 0.745741
338 4 0.552468 0.249207 0.773619
339 4 0.356649 0.0686295 0.76984
340 4 0.330815 0.330656 0.941912
341 4 0.317969 0.116642 0.930327
342 4 0.509958 0.321952 0.952869
343 4 0.558156 0.4239 0.10033
344 4 0.549577 0.597053 0.118728
345 4 0.368468 0.424263 0.113387
346 4 0.313838 0.658436 0.274567
347 4 0.31872 0.471079 0.265821
348 4 0.482032 0.644269 0.274674
349 4 0.536286 0.407626 0.447906
350 4 0.536843 0.600235 0.429706
351 4 0.352175 0.415369 0.443512
352 4 0.300842 0.633645 0.589571
353 4 0.30703 0.44658 0.616563
354 4 0.484062 0.635297 0.612826
355 4 0.545633 0.400597 0.780507
356 4 0.559934 0.592948 0.779267
357 4 0.374634 0.40803 0.772608
358 4 0.333159 0.65096 0.926483
359 4 0.321388 0.473725 0.932875
360 4 0.499818 0.637751 0.953001
361 4 0.545 0.747833 0.105472
362 4 0.561958 0.933433 0.0872956
363 4 0.376715 0.760067 0.106974
364 4 0.333526 0.0106652 0.283629
365 4 0.330705 0.823121 0.287475
366 4 0.507819 0.985432 0.257982
367 4 0.538313 0.758055 0.453513
368 4 0.540087 0.92108 0.417737
369 4 0.361663 0.745175 0.448568
370 4 0.300023 0.964952 0.590895
371 4 0.295891 0.776407 0.615331
372 4 0.497162 0.967314 0.580054
373 4 0.52985 0.735858 0.784879
374 4 0.535557 0.913274 0.762986
375 4 0.364474 0.741898 0.762525
376 4 0.315272 0.966013 0.928986
377 4 0.328469 0.807352 0.937792
378 4 0.488291 0.984126 0.941468
379 4 0.89357 0.107454 0.0967102
380 4 0.901377 0.292139 0.099982
381 4 0.719484 0.0853126 0.0890106
382 4 0.653464 0.326012 0.284379
383 4 0.653618 0.135046 0.25806
384 4 0.84142 0.339711 0.258556
385 4 0.868407 0.073234 0.43191
386 4 0.880279 0.261044 0.414966
387 4 0.702484 0.0786138 0.42329
388 4 0.645347 0.305556 0.596431
389 4 0.657304 0.114187 0.595262
390 4 0.81936 0.295874 0.603338
391 4 0.86468 0.0701986 0.748707
392 4 0.872168 0.257179 0.770762
393 4 0.684919 0.0664663 0.771378
394 4 0.66218 0.311625 0.937196
395 4 0.638204 0.129335 0.919691
396 4 0.844607 0.334072 0.938356
397 4 0.893695 0.437188 0.0922091
398 4 0.89662 0.629881 0.116255
399 4 0.720018 0.431309 0.111341
400 4 0.637016 0.656144 0.283114
401 4 0.642429 0.485508 0.277031
402 4 0.828371 0.677467 0.273529
403 4 0.877988 0.4047 0.439015
404 4 0.871975 0.597496 0.429629
405 4 0.699045 0.433073 0.440996
406 4 0.631266 0.626773 0.602688
407 4 0.667926 0.456521 0.599675
408 4 0.807572 0.62011 0.623418
409 4 0.894096 0.414537 0.752566
410 4 0.883771 0.598559 0.790702
411 4 0.70416 0.408856 0.777195
412 4 0.652346 0.644945 0.945452
413 4 0.658089 0.473007 0.930382
414 4 0.833016 0.664604 0.95083
415 4 0.879313 0.777002 0.112751
416 4 0.886512 0.946713 0.0835854
417 4 0.698275 0.751619 0.116124
418 4 0.649125 0.973702 0.270417
419 4 0.617945 0.801613 0.273482
420 4 0.835368 0.00565289 0.252569
421 4 0.853832 0.728619 0.454234
422 4 0.880781 0.927464 0.415231
423 4 0.687852 0.750821 0.445946
424 4 0.645545 0.960828 0.609643
425 4 0.640031 0.791165 0.611489
426 4 0.821208 0.967841 0.587445
427 4 0.870293 0.746851 0.764762
428 4 0.878303 0.926827 0.773215
429 4 0.684402 0.748497 0.771431
430 4 0.635325 0.97683 0.925075
431 4 0.649041 0.79502 0.940635
432 4 0.839033 0.0141873 0.934358
433 4 0.21989 0.0804563 0.108824
434 4 0.230618 0.271416 0.0952829
435 4 0.0408279 0.0974705 0.0923752
436 4 0.986525 0.325569 0.258701
437 4 0.988486 0.144798 0.260467
438 4 0.160688 0.319584 0.264055
439 4 0.208452 0.0897556 0.430787
440 4 0.200078 0.272264 0.421457
441 4 0.0333908 0.0847384 0.421348
442 4 0.968391 0.286629 0.592912
443 4 0.981424 0.120259 0.589716
444 4 0.151803 0.296176 0.605074
445 4 0.205845 0.0633508 0.770067
446 4 0.207907 0.251406 0.779054
447 4 0.0239313 0.0799283 0.745227
448 4 0.989177 0.325286 0.944368
449 4 0.00262528 0.158535 0.924326
450 4 0.176586 0.336052 0.938718
451 4 0.213773 0.412011 0.0982902
452 4 0.222989 0.612985 0.110793
453 4 0.0533826 0.457487 0.094713
454 4 0.97352 0.665156 0.276638
455 4 0.992425 0.484197 0.27321
456 4 0.17139 0.67681 0.275605
457 4 0.211525 0.4283 0.441614
458 4 0.205131 0.600672 0.425593
459 4 0.0276618 0.411289 0.437487
460 4 0.964924 0.630389 0.596853
461 4 0.983462 0.441759 0.603642
462 4 0.140509 0.615835 0.617383
463 4 0.215161 0.404117 0.758972
464 4 0.220061 0.595425 0.78758
465 4 0.0370383 0.393512 0.755489
466 4 0.991412 0.671177 0.957646
467 4 0.99772 0.484374 0.91782
468 4 0.176552 0.646533 0.940446
469 4 0.232618 0.773301 0.1008
470 4 0.226082 0.929101 0.108848
471 4 0.0410952 0.78159 0.115012
472 4 0.977204 0.985917 0.250018
473 4 0.987832 0.827993 0.302344
474 4 0.168724 0.985655 0.25806
475 4 0.208385 0.754564 0.456282
476 4 0.218613 0.937674 0.417485
477 4 0.0165803 0.749493 0.450942
478 4 0.96319 0.955635 0.586275
479 4 0.97594 0.786991 0.621867
480 4 0.153837 0.978933 0.596027
481 4 0.21407 0.73953 0.763772
482 4 0.210665 0.907491 0.759695
483 4 0.0241665 0.759594 0.780838
484 4 0.985422 0.00180815 0.912026
485 4 0.990173 0.812453 0.935028
486 4 0.160336 0.983999 0.944202
487 5 0.35468 0.244041 0.140985
488 5 0.392198 0.267868 0.0498078
489 5 0.494537 0.138913 0.309928
490 5 0.508422 0.152621 0.218672
491 5 0.365621 0.24865 0.479005
492 5 0.370342 0.252784 0.384697
493 5 0.491293 0.160512 0.623396
494 5 0.464384 0.109145 0.545298
495 5 0.383973 0.260317 0.833499
496 5 0.369819 0.229802 0.741553
497 5 0.504763 0.156366 0.972146
498 5 0.476827 0.126376 0.884311
499 5 0.399307 0.575693 0.130806
500 5 0.378011 0.592941 0.0459386
501 5 0.464949 0.47659 0.308866
502 5 0.484901 0.477655 0.219092
503 5 0.371053 0.568736 0.472427
504 5 0.356143 0.590868 0.383173
505 5 0.470831 0.451668 0.655615
506 5 0.461649 0.457365 0.559573
507 5 0.382925 0.594754 0.821696
508 5 0.379686 0.589541 0.724543
509 5 0.480671 0.457148 0.986094
510 5 0.487813 0.470626 0.892191
511 5 0.396199 0.919975 0.158449
512 5 0.360063 0.913474 0.0681171
513 5 0.476975 0.788423 0.310088
514 5 0.47857 0.812725 0.218813
515 5 0.369393 0.922416 0.490441
516 5 0.392232 0.905889 0.401024
517 5 0.507758 0.800823 0.647971
518 5 0.45417 0.788142 0.568675
519 5 0.364132 0.892102 0.79898
520 5 0.362933 0.904979 0.704441
521 5 0.491269 0.809711 0.98295
522 5 0.479975 0.82564 0.893113
523 5 0.716551 0.267357 0.149658
524 5 0.731241 0.305106 0.0594606
525 5 0.806566 0.130903 0.306873
526 5 0.820659 0.160211 0.214236
527 5 0.723763 0.241223 0.488912
528 5 0.694136 0.241373 0.398498
529 5 0.798209 0.135525 0.643237
530 5 0.820803 0.152302 0.550794
531 5 0.708554 0.238011 0.799216
532 5 0.701777 0.246444 0.705102
533 5 0.823135 0.14608 0.97662
534 5 0.805642 0.135065 0.883647
535 5 0.727978 0.58915 0.151483
536 5 0.720416 0.613726 0.061272
537 5 0.82678 0.475191 0.316334
538 5 0.836975 0.473117 0.222622
539 5 0.701851 0.564708 0.48266
540 5 0.679874 0.586167 0.395266
541 5 0.821898 0.46185 0.651654
542 5 0.797034 0.452095 0.559997
543 5 0.723245 0.56075 0.800599
544 5 0.688087 0.558878 0.7147
545 5 0.846551 0.501318 0.976537
546 5 0.821597 0.462102 0.886827
547 5 0.711552 0.922598 0.160791
548 5 0.707356 0.929463 0.0623595
549 5 0.801188 0.792954 0.309743
550 5 0.827263 0.835576 0.2244
551 5 0.710348 0.899005 0.473025
552 5 0.669513 0.904547 0.39135
553 5 0.834317 0.824367 0.63539
554 5 0.798386 0.79076 0.544088
555 5 0.689676 0.898063 0.80814
556 5 0.730751 0.902559 0.723172
557 5 0.826742 0.825203 0.971153
558 5 0.811439 0.793238 0.88351
559 5 0.0500997 0.270001 0.148375
560 5 0.0533886 0.288168 0.0532756
561 5 0.18282 0.16189 0.296517
562 5 0.176038 0.161209 0.201026
563 5 0.0410554 0.243735 0.479108
564 5 0.0478646 0.237943 0.384228
565 5 0.178267 0.144441 0.637988
566 5 0.145586 0.139956 0.546925
567 5 0.0682373 0.276935 0.802543
568 5 0.0422463 0.261415 0.709617
569 5 0.174341 0.160553 0.999144
570 5 0.187296 0.150432 0.90844
571 5 0.0500116 0.593986 0.150831
572 5 0.0756202 0.610417 0.0606376
573 5 0.147194 0.452578 0.288814
574 5 0.161257 0.492879 0.202694
575 5 0.0526892 0.57293 0.487173
576 5 0.0415855 0.594201 0.394977
577 5 0.165782 0.451795 0.649153
578 5 0.139311 0.46896 0.557499
579 5 0.0348658 0.585645 0.814852
580 5 0.0172013 0.562086 0.721241
581 5 0.157949 0.463921 0.975285
582 5 0.145286 0.458726 0.879105
583 5 0.0661275 0.94919 0.138822
584 5 0.0458094 0.920754 0.0449552
585 5 0.137967 0.794974 0.32194
586 5 0.158078 0.812764 0.228983
587 5 0.0478611 0.921606 0.48306
588 5 0.036489 0.949524 0.399012
589 5 0.177778 0.82203 0.640462
590 5 0.135243 0.80031 0.554883
591 5 0.0322748 0.924923 0.806021
592 5 0.0558682 0.922159 0.716598
593 5 0.166805 0.811007 0.983763
594 5 0.191853 0.810343 0.894027
595 6 0.26524 0.0219807 0.020851
596 6 0.284744 0.0470204 0.186121
597 6 0.263543 0.0487696 0.347617
598 6 0.255038 0.0274376 0.518961
599 6 0.247411 0.00649876 0.676963
600 6 0.249126 0.00127801 0.850963
601 6 0.279732 0.379633 0.0209144
602 6 0.264083 0.362839 0.185869
603 6 0.253719 0.379121 0.352759
604 6 0.245285 0.359625 0.523216
605 6 0.259407 0.334976 0.684741
606 6 0.265767 0.365274 0.850424
607 6 0.276219 0.704981 0.0207929
608 6 0.284387 0.730512 0.193908
609 6 0.267359 0.719838 0.368376
610 6 0.238172 0.67672 0.524125
611 6 0.260209 0.674988 0.689816
612 6 0.277307 0.703837 0.857358
613 6 0.606462 0.0395312 0.00740264
614 6 0.621308 0.03446 0.179377
615 6 0.597858 0.0400204 0.35009
616 6 0.609887 0.00937032 0.511715
617 6 0.592696 0.0134518 0.678702
618 6 0.572629 0.0178451 0.842136
619 6 0.621963 0.37338 0.0254482
620 6 0.618894 0.387761 0.192544
621 6 0.598958 0.377655 0.354253
622 6 0.59074 0.353269 0.521036
623 6 0.611128 0.370743 0.694375
624 6 0.59763 0.351312 0.860731
625 6 0.602523 0.697906 0.0319984
626 6 0.586021 0.700656 0.197605
627 6 0.582723 0.706513 0.365014
628 6 0.57729 0.686114 0.525089
629 6 0.58183 0.682094 0.694089
630 6 0.591481 0.688601 0.860907
631 6 0.946314 0.0627163 0.00602362
632 6 0.938352 0.0464724 0.170337
633 6 0.929902 0.0426623 0.338817
634 6 0.92299 0.017384 0.502905
635 6 0.918806 0.00808109 0.67545
636 6 0.926307 0.0482132 0.840033
637 6 0.958657 0.403337 0.011226
638 6 0.949366 0.396471 0.17923
639 6 0.938104 0.37512 0.347425
640 6 0.92143 0.342782 0.512202
641 6 0.922663 0.335705 0.680588
642 6 0.942112 0.368936 0.846394
643 6 0.942412 0.731848 0.0323926
644 6 0.946477 0.754665 0.203114
645 6 0.916616 0.704934 0.363331
646 6 0.895403 0.674453 0.534441
647 6 0.924807 0.683025 0.695349
648 6 0.923757 0.705033 0.866885
ITEM: TIMESTEP
1000
ITEM: NUMBER OF ATOMS
648
ITEM: BOX BOUNDS xy xz yz pp pp pp
-1.9485500999999999e+01 1.9486000000000001e+01 -1.2990500000000001e+01
-6.5310400000000002e-01 2.1847103000000001e+01 0.0000000000000000e+00
-9.0100000000000002e-01 2.2806000999999998e+01 0.0000000000000000e+00
ITEM: ATOMS id type xs ys zs
1 1 0.41376 0.271426 0.111289
2 1 0.51303 0.188548 0.271706
3 1 0.350569 0.254829 0.427445
4 1 0.49307 0.127067 0.619064
5 1 0.33887 0.222212 0.761607
6 1 0.471355 0.123567 0.966523
7 1 0.374363 0.611032 0.109614
8 1 0.535857 0.515045 0.271497
9 1 0.371719 0.600396 0.424705
10 1 0.458241 0.467536 0.604629
11 1 0.354241 0.553087 0.761356
12 1 0.476358 0.486996 0.932799
13 1 0.406821 0.93463 0.10177
14 1 0.502574 0.84362 0.248167
15 1 0.363581 0.927285 0.428996
16 1 0.461855 0.784822 0.583557
17 1 0.382718 0.929258 0.781662
18 1 0.510069 0.810102 0.924667
19 1 0.696118 0.270409 0.125898
20 1 0.816863 0.167208 0.302932
21 1 0.71975 0.231726 0.456448
22 1 0.809028 0.118638 0.594795
23 1 0.703216 0.265091 0.76808
24 1 0.809963 0.132972 0.932737
25 1 0.713259 0.597536 0.114022
26 1 0.83624 0.505011 0.260301
27 1 0.719837 0.617954 0.425127
28 1 0.815009 0.452644 0.604125
29 1 0.677719 0.549401 0.766064
30 1 0.814882 0.487074 0.931063
31 1 0.709275 0.939245 0.118889
32 1 0.851253 0.840037 0.27474
33 1 0.69975 0.927591 0.461555
34 1 0.784686 0.779725 0.585164
35 1 0.689689 0.903658 0.753197
36 1 0.843856 0.823549 0.926666
37 1 0.0272244 0.259489 0.117123
38 1 0.181495 0.185665 0.27097
39 1 0.046154 0.27033 0.427093
40 1 0.162103 0.141534 0.611867
41 1 0.0155072 0.217427 0.769081
42 1 0.135842 0.130718 0.934285
43 1 0.0358826 0.603837 0.0971087
44 1 0.155457 0.512459 0.25915
45 1 0.0119715 0.578662 0.438913
46 1 0.128393 0.474061 0.60104
47 1 0.0466577 0.597354 0.769539
48 1 0.134503 0.484874 0.940916
49 1 0.0642094 0.967536 0.102115
50 1 0.171258 0.835301 0.277538
51 1 0.0683186 0.924837 0.425849
52 1 0.120734 0.766508 0.610411
53 1 0.0372937 0.926426 0.77675
54 1 0.145469 0.814483 0.935623
55 2 0.333058 0.252228 0.0720517
56 2 0.354262 0.271363 0.170257
57 2 0.411292 0.264904 0.196848
58 2 0.393337 0.266862 0.0288724
59 2 0.469578 0.120543 0.212237
60 2 0.46204 0.103348 0.312372
61 2 0.499547 0.165229 0.352211
62 2 0.505488 0.190625 0.187456
63 2 0.422196 0.242383 0.41995
64 2 0.394496 0.261475 0.506278
65 2 0.338733 0.270783 0.509828
66 2 0.38957 0.240351 0.355831
67 2 0.429331 0.0941582 0.55414
68 2 0.408532 0.108181 0.635608
69 2 0.449035 0.117431 0.693972
70 2 0.49631 0.112753 0.5323
71 2 0.386639 0.303444 0.720287
72 2 0.396503 0.28889 0.814573
73 2 0.351331 0.227127 0.850289
74 2 0.340912 0.245076 0.678751
75 2 0.486055 0.185036 0.898354
76 2 0.54088 0.211534 0.967686
77 2 0.533367 0.165951 0.0248665
78 2 0.42772 0.113271 0.896523
79 2 0.435852 0.644856 0.0471493
80 2 0.450383 0.60753 0.125693
81 2 0.413485 0.604739 0.183874
82 2 0.365789 0.614892 0.0226649
83 2 0.481096 0.484788 0.200517
84 2 0.450237 0.445986 0.288477
85 2 0.496797 0.461585 0.344397
86 2 0.545161 0.549951 0.192426
87 2 0.436344 0.577036 0.414049
88 2 0.41119 0.597642 0.49487
89 2 0.345423 0.598493 0.508909
90 2 0.402996 0.579314 0.352618
91 2 0.545471 0.497412 0.583093
92 2 0.505357 0.475995 0.680013
93 2 0.441706 0.474109 0.687862
94 2 0.499697 0.469347 0.528173
95 2 0.374609 0.635646 0.734043
96 2 0.383754 0.608036 0.83484
97 2 0.351753 0.536081 0.843415
98 2 0.379035 0.597858 0.681358
99 2 0.451569 0.400443 0.902824
100 2 0.495781 0.435945 0.981375
101 2 0.505832 0.495052 0.0191213
102 2 0.458334 0.45323 0.853844
103 2 0.352765 0.924844 0.0320173
104 2 0.322349 0.914151 0.118932
105 2 0.360345 0.906348 0.175863
106 2 0.427517 0.956674 0.0194672
107 2 0.465784 0.755223 0.223761
108 2 0.468983 0.778701 0.306221
109 2 0.504338 0.847449 0.335444
110 2 0.484901 0.804972 0.169969
111 2 0.416318 0.893196 0.400577
112 2 0.401515 0.904878 0.495901
113 2 0.352113 0.92797 0.512136
114 2 0.387612 0.91394 0.349344
115 2 0.545795 0.816673 0.546809
116 2 0.532846 0.831791 0.63957
117 2 0.461517 0.796082 0.668115
118 2 0.488095 0.786182 0.501192
119 2 0.317074 0.84823 0.750842
120 2 0.341072 0.868698 0.849805
121 2 0.38856 0.936787 0.870524
122 2 0.35042 0.900652 0.699794
123 2 0.450916 0.825349 0.883451
124 2 0.472967 0.853673 0.96722
125 2 0.510279 0.833942 0.0106919
126 2 0.489272 0.803411 0.840989
127 2 0.718373 0.245561 0.046479
128 2 0.741318 0.225499 0.134947
129 2 0.726976 0.252939 0.197822
130 2 0.677493 0.276549 0.0415108
131 2 0.816019 0.113679 0.238958
132 2 0.786831 0.0786049 0.328018
133 2 0.809962 0.127491 0.382046
134 2 0.827107 0.181353 0.216916
135 2 0.677186 0.25034 0.388037
136 2 0.639056 0.227457 0.482534
137 2 0.672364 0.205833 0.530573
138 2 0.745855 0.265559 0.374644
139 2 0.737599 0.135446 0.587962
140 2 0.793137 0.158902 0.660234
141 2 0.829517 0.124734 0.6824
142 2 0.748698 0.0972006 0.537544
143 2 0.688985 0.184171 0.746031
144 2 0.692949 0.209789 0.837818
145 2 0.706254 0.278975 0.854529
146 2 0.694874 0.222805 0.687821
147 2 0.81426 0.0717505 0.87858
148 2 0.796535 0.0612506 0.976971
149 2 0.815216 0.120903 0.0180196
150 2 0.81434 0.131394 0.847455
151 2 0.746008 0.589531 0.0376426
152 2 0.785453 0.581832 0.130817
153 2 0.758718 0.602898 0.186477
154 2 0.683413 0.595481 0.0309361
155 2 0.821707 0.423134 0.239426
156 2 0.838951 0.457307 0.32921
157 2 0.848638 0.52258 0.347033
158 2 0.813565 0.454112 0.1821
159 2 0.684542 0.549259 0.364574
160 2 0.695755 0.537465 0.46072
161 2 0.701467 0.587263 0.50845
162 2 0.73088 0.618033 0.341766
163 2 0.752286 0.473814 0.577323
164 2 0.755329 0.445 0.668563
165 2 0.810898 0.435165 0.690134
166 2 0.785781 0.458241 0.523735
167 2 0.723311 0.62418 0.710859
168 2 0.722356 0.631031 0.806966
169 2 0.688784 0.572809 0.853042
170 2 0.683893 0.557462 0.679635
171 2 0.831211 0.427359 0.885046
172 2 0.851079 0.453408 0.988999
173 2 0.830332 0.49978 0.0147991
174 2 0.809249 0.466998 0.844444
175 2 0.740155 0.924429 0.0456008
176 2 0.778962 0.923441 0.136959
177 2 0.746507 0.938216 0.193088
178 2 0.681761 0.938122 0.0377391
179 2 0.806083 0.782062 0.208643
180 2 0.782851 0.756891 0.295508
181 2 0.820855 0.798076 0.352888
182 2 0.849101 0.855279 0.188789
183 2 0.720325 0.922586 0.374947
184 2 0.713294 0.857711 0.455082
185 2 0.714619 0.881105 0.522208
186 2 0.676714 0.954998 0.390523
187 2 0.867959 0.819961 0.551995
188 2 0.854471 0.81302 0.643044
189 2 0.78366 0.77045 0.671764
190 2 0.819566 0.813144 0.500823
191 2 0.753759 0.885149 0.730515
192 2 0.746236 0.913609 0.820268
193 2 0.690722 0.924748 0.838383
194 2 0.703376 0.874693 0.677143
195 2 0.781841 0.738951 0.90103
196 2 0.809254 0.763981 0.989937
197 2 0.852449 0.831568 0.01439
198 2 0.827457 0.784553 0.847721
199 2 0.102458 0.312011 0.0686342
200 2 0.100118 0.299127 0.16415
201 2 0.0406181 0.272497 0.205981
202 2 0.0446994 0.266443 0.0320652
203 2 0.155017 0.13328 0.195123
204 2 0.139219 0.0954591 0.292037
205 2 0.154364 0.139933 0.348224
206 2 0.205606 0.202726 0.189915
207 2 0.114367 0.257086 0.396416
208 2 0.0711102 0.232062 0.491644
209 2 0.028064 0.259199 0.509715
210 2 0.0903625 0.288538 0.349557
211 2 0.121073 0.138192 0.535029
212 2 0.0770664 0.120879 0.628735
213 2 0.116718 0.121829 0.686727
214 2 0.193082 0.159984 0.526735
215 2 0.0451435 0.280926 0.702482
216 2 0.0697881 0.303997 0.797665
217 2 0.035997 0.251291 0.85082
218 2 0.0214688 0.212563 0.681837
219 2 0.18086 0.136232 0.856363
220 2 0.226108 0.175155 0.948223
221 2 0.191197 0.159372 0.00662348
222 2 0.109981 0.111608 0.849206
223 2 0.0498603 0.542382 0.0658515
224 2 0.0854914 0.584035 0.148809
225 2 0.0539047 0.619189 0.183468
226 2 0.0284658 0.576695 0.0137381
227 2 0.156515 0.43692 0.233751
228 2 0.151251 0.453358 0.322195
229 2 0.170529 0.52326 0.344358
230 2 0.155959 0.481083 0.179446
231 2 0.0847004 0.570663 0.422521
232 2 0.0504702 0.565414 0.513502
233 2 0.994011 0.575659 0.525505
234 2 0.049259 0.578383 0.364017
235 2 0.196311 0.514398 0.543342
236 2 0.209247 0.497148 0.638934
237 2 0.150615 0.473478 0.683609
238 2 0.122171 0.4801 0.520294
239 2 1.00176 0.534586 0.707131
240 2 0.984735 0.515689 0.799519
241 2 0.0243192 0.564195 0.853157
242 2 0.0470331 0.606999 0.683935
243 2 0.175327 0.44689 0.901179
244 2 0.170852 0.444208 0.985718
245 2 0.152535 0.486352 0.0233847
246 2 0.142359 0.476861 0.857284
247 2 0.027028 0.882051 0.0708484
248 2 0.0302445 0.900643 0.165652