
Lmod is automatically replacing "cce/11.0.4" with "gcc/10.2.0".


Lmod is automatically replacing "PrgEnv-cray/8.0.0" with "PrgEnv-gnu/8.0.0".


Lmod is automatically replacing "craype-network-ofi" with "craype-network-ucx".


Inactive Modules:
  1) cray-mpich


Lmod is automatically replacing "craype-network-ucx" with "craype-network-ofi".


Inactive Modules:
  1) cray-mpich-ucx/8.1.9

Activating Modules:
  1) cray-mpich/8.1.4

 ----------------------------------------------------
    OOO  PPPP  EEEEE N   N M   M PPPP
   O   O P   P E     NN  N MM MM P   P
   O   O PPPP  EEEEE N N N M M M PPPP   -- VERSION
   O   O P     E     N  NN M   M P
    OOO  P     EEEEE N   N M   M P
 ----------------------------------------------------
 running   64 mpi-ranks, with    1 threads/rank
 distrk:  each k-point on   32 cores,    2 groups
 distr:  one band on    4 cores,    8 groups
 vasp.6.3.1 04May22 (build May 25 2022 13:42:54) complex                         
 POSCAR found type information on POSCAR C H I N Sn
 POSCAR found :  5 types and      48 ions
 scaLAPACK will be used
 -----------------------------------------------------------------------------
|                                                                             |
|               ----> ADVICE to this user running VASP <----                  |
|                                                                             |
|     You have a (more or less) 'large supercell' and for larger cells it     |
|     might be more efficient to use real-space projection operators.         |
|     Therefore, try LREAL= Auto in the INCAR file.                           |
|     Mind: For very accurate calculation, you might also keep the            |
|     reciprocal projection scheme (i.e. LREAL=.FALSE.).                      |
|                                                                             |
 -----------------------------------------------------------------------------

 WARNING: PSMAXN for non-local potential too small
 LDA part: xc-table for Pade appr. of Perdew
 POSCAR, INCAR and KPOINTS ok, starting setup
 FFT: planning ... GRIDC
 FFT: planning ... GRID_SOFT
 FFT: planning ... GRID
 WAVECAR not read
 entering main loop
       N       E                     dE             d eps       ncg     rms          ort
DAV:   1     0.807481532421E+03    0.80748E+03   -0.91883E+04  1200   0.163E+03
DAV:   2    -0.471415047439E+03   -0.12789E+04   -0.12227E+04  1200   0.256E+02
DAV:   3    -0.637771872213E+03   -0.16636E+03   -0.16474E+03  1200   0.103E+02
DAV:   4    -0.642652995313E+03   -0.48811E+01   -0.48483E+01  1200   0.197E+01
DAV:   5    -0.642800073117E+03   -0.14708E+00   -0.14695E+00  1200   0.322E+00
 gam= 0.000 g(H,U,f)=  0.633E+02 0.103E+02 0.572E-01 ort(H,U,f) = 0.000E+00 0.000E+00 0.000E+00
SDA:   6    -0.575895835755E+03    0.66904E+02   -0.14695E+00  1200   0.736E+02 0.000E+00
 gam= 0.000 trial= 0.400  step= 0.339 mean= 0.400
 gam= 0.070 g(H,U,f)=  0.414E+01 0.104E+01 0.675E-15 ort(H,U,f) =-0.197E+01 0.289E+01-0.111E-14
CGA:   7    -0.588339080124E+03   -0.12443E+02   -0.12491E+02  1200   0.518E+01 0.925E+00
 gam= 0.070 trial= 0.397  step= 0.608 mean= 0.397
 gam= 0.325 g(H,U,f)=  0.140E+01 0.285E+00 0.877E-12 ort(H,U,f) =-0.579E+00 0.605E+00 0.681E-12
CGA:   8    -0.589938231124E+03   -0.15992E+01   -0.15951E+01  1200   0.168E+01 0.261E-01
 gam= 0.325 trial= 0.408  step= 0.612 mean= 0.408
 gam= 0.300 g(H,U,f)=  0.431E+00 0.743E-01 0.671E-13 ort(H,U,f) =-0.231E+00 0.234E+00 0.318E-12
CGA:   9    -0.590455761955E+03   -0.51753E+00   -0.51719E+00  1200   0.505E+00 0.343E-02
 gam= 0.300 trial= 0.418  step= 0.605 mean= 0.418
 gam= 0.269 g(H,U,f)=  0.120E+00 0.161E-01 0.122E-11 ort(H,U,f) =-0.648E-01 0.650E-01 0.229E-11
CGA:  10    -0.590608906380E+03   -0.15314E+00   -0.15311E+00  1200   0.136E+00 0.209E-03
 gam= 0.269 trial= 0.427  step= 0.690 mean= 0.427
 gam= 0.273 g(H,U,f)=  0.342E-01 0.292E-02 0.951E-16 ort(H,U,f) =-0.122E-01 0.119E-01-0.752E-13
CGA:  11    -0.590655813097E+03   -0.46907E-01   -0.46936E-01  1200   0.371E-01-0.266E-03
 gam= 0.273 trial= 0.440  step= 0.640 mean= 0.440
 gam= 0.210 g(H,U,f)=  0.727E-02 0.542E-03 0.430E-12 ort(H,U,f) =-0.210E-02 0.208E-02 0.195E-11
CGA:  12    -0.590667668195E+03   -0.11855E-01   -0.11858E-01  1200   0.781E-02-0.193E-04
 gam= 0.210 trial= 0.450  step= 0.728 mean= 0.450
 gam= 0.251 g(H,U,f)=  0.185E-02 0.111E-03 0.881E-12 ort(H,U,f) =-0.360E-03 0.337E-03 0.151E-11
CGA:  13    -0.590670505525E+03   -0.28373E-02   -0.28406E-02  1200   0.196E-02-0.222E-04
 gam= 0.251 trial= 0.464  step= 0.725 mean= 0.464
 gam= 0.225 g(H,U,f)=  0.411E-03 0.294E-04 0.597E-13 ort(H,U,f) =-0.658E-04 0.689E-04 0.392E-12
CGA:  14    -0.590671214065E+03   -0.70854E-03   -0.70817E-03  1200   0.441E-03 0.312E-05
 gam= 0.225 trial= 0.477  step= 0.760 mean= 0.477
 gam= 0.241 g(H,U,f)=  0.993E-04 0.668E-05 0.306E-12 ort(H,U,f) =-0.347E-05 0.147E-04 0.372E-12
CGA:  15    -0.590671383402E+03   -0.16934E-03   -0.16775E-03  1200   0.106E-03 0.112E-04
 gam= 0.241 trial= 0.491  step= 0.815 mean= 0.491
 gam= 0.255 g(H,U,f)=  0.254E-04 0.161E-05 0.572E-13 ort(H,U,f) =-0.101E-05 0.358E-05 0.189E-12
CGA:  16    -0.590671428127E+03   -0.44725E-04   -0.44306E-04  1200   0.270E-04 0.257E-05
 gam= 0.255 trial= 0.507  step= 0.824 mean= 0.507
 gam= 0.255 g(H,U,f)=  0.661E-05 0.276E-06 0.136E-13 ort(H,U,f) =-0.300E-06 0.460E-06 0.546E-13
CGA:  17    -0.590671439554E+03   -0.11427E-04   -0.11401E-04  1200   0.688E-05 0.160E-06
 gam= 0.255 trial= 0.523  step= 0.771 mean= 0.523
 gam= 0.258 g(H,U,f)=  0.167E-05 0.107E-06 0.446E-14 ort(H,U,f) = 0.393E-06 0.923E-07 0.163E-13
CGA:  18    -0.590671442284E+03   -0.27300E-05   -0.26697E-05  1200   0.178E-05 0.485E-06
 gam= 0.258 trial= 0.536  step= 0.758 mean= 0.536
 final diagonalization
   1 F= -.59067144E+03 E0= -.59067144E+03  d E =-.590671E+03
 curvature:   0.00 expect dE= 0.000E+00 dE for cont linesearch  0.000E+00
 trial: gam= 0.00000 g(F)=  0.824E+00 g(S)=  0.000E+00 ort = 0.000E+00 (trialstep = 0.100E+01)
 search vector abs. value=  0.824E+00
 bond charge predicted
 wavefunctions rotated
       N       E                     dE             d eps       ncg     rms          ort
 gam= 0.000 g(H,U,f)=  0.175E+02 0.129E+00 0.471E-09 ort(H,U,f) = 0.000E+00 0.000E+00 0.000E+00
SDA:   1    -0.582855896788E+03    0.78155E+01    0.00000E+00  1200   0.176E+02 0.000E+00
 gam= 0.000 trial= 0.547  step= 0.681 mean= 0.547
 gam= 0.315 g(H,U,f)=  0.540E+01 0.148E+00 0.156E-11 ort(H,U,f) = 0.200E+00-0.913E-01-0.124E-11
CGA:   2    -0.588853795242E+03   -0.59979E+01   -0.59874E+01  1200   0.554E+01 0.109E+00
 gam= 0.315 trial= 0.554  step= 0.539 mean= 0.554
 gam= 0.157 g(H,U,f)=  0.838E+00 0.317E-01 0.904E-11 ort(H,U,f) =-0.472E-01 0.351E-01 0.403E-10
CGA:   3    -0.590358510067E+03   -0.15047E+01   -0.15045E+01  1200   0.870E+00-0.122E-01
 gam= 0.157 trial= 0.553  step= 0.495 mean= 0.553
 gam= 0.191 g(H,U,f)=  0.157E+00 0.889E-02 0.121E-13 ort(H,U,f) =-0.168E-01 0.176E-01 0.960E-12
CGA:   4    -0.590573093507E+03   -0.21458E+00   -0.21465E+00  1200   0.166E+00 0.789E-03
 gam= 0.191 trial= 0.550  step= 0.577 mean= 0.550
 gam= 0.251 g(H,U,f)=  0.375E-01 0.416E-02 0.118E-10 ort(H,U,f) =-0.788E-02 0.801E-02 0.716E-11
CGA:   5    -0.590621022819E+03   -0.47929E-01   -0.47928E-01  1200   0.416E-01 0.130E-03
 gam= 0.251 trial= 0.551  step= 0.661 mean= 0.551
 gam= 0.316 g(H,U,f)=  0.118E-01 0.135E-02 0.100E-11 ort(H,U,f) =-0.330E-02 0.334E-02 0.526E-11
CGA:   6    -0.590634785186E+03   -0.13762E-01   -0.13760E-01  1200   0.131E-01 0.390E-04
 gam= 0.316 trial= 0.557  step= 0.726 mean= 0.557
 gam= 0.305 g(H,U,f)=  0.377E-02 0.237E-03 0.117E-11 ort(H,U,f) =-0.850E-03 0.854E-03-0.336E-11
CGA:   7    -0.590639565304E+03   -0.47801E-02   -0.47796E-02  1200   0.400E-02 0.435E-05
 gam= 0.305 trial= 0.565  step= 0.736 mean= 0.565
 gam= 0.247 g(H,U,f)=  0.958E-03 0.329E-04 0.262E-12 ort(H,U,f) =-0.159E-03 0.161E-03-0.683E-13
CGA:   8    -0.590641040378E+03   -0.14751E-02   -0.14749E-02  1200   0.990E-03 0.217E-05
 gam= 0.247 trial= 0.574  step= 0.703 mean= 0.574
 gam= 0.216 g(H,U,f)=  0.208E-03 0.562E-05 0.897E-13 ort(H,U,f) =-0.197E-04 0.217E-04-0.148E-12
CGA:   9    -0.590641388853E+03   -0.34848E-03   -0.34835E-03  1200   0.214E-03 0.198E-05
 gam= 0.216 trial= 0.580  step= 0.732 mean= 0.580
 gam= 0.230 g(H,U,f)=  0.480E-04 0.120E-05 0.552E-14 ort(H,U,f) =-0.178E-05 0.191E-05 0.142E-13
CGA:  10    -0.590641467210E+03   -0.78356E-04   -0.78346E-04  1200   0.492E-04 0.136E-06
 gam= 0.230 trial= 0.588  step= 0.791 mean= 0.588
 gam= 0.266 g(H,U,f)=  0.128E-04 0.266E-06 0.712E-15 ort(H,U,f) =-0.118E-05 0.163E-06-0.313E-14
CGA:  11    -0.590641486590E+03   -0.19380E-04   -0.19484E-04  1200   0.131E-04-0.102E-05
 gam= 0.266 trial= 0.598  step= 0.785 mean= 0.598
 gam= 0.253 g(H,U,f)=  0.320E-05 0.109E-06 0.300E-14 ort(H,U,f) =-0.227E-06 0.545E-07 0.233E-15
CGA:  12    -0.590641491601E+03   -0.50106E-05   -0.50265E-05  1200   0.331E-05-0.172E-06
 gam= 0.253 trial= 0.607  step= 0.806 mean= 0.607
 gam= 0.285 g(H,U,f)=  0.892E-06 0.514E-07 0.803E-15 ort(H,U,f) =-0.106E-06 0.158E-07-0.158E-14
CGA:  13    -0.590641492908E+03   -0.13075E-05   -0.13167E-05  1200   0.944E-06-0.906E-07
 gam= 0.285 trial= 0.617  step= 0.794 mean= 0.617
 final diagonalization
   2 F= -.59064149E+03 E0= -.59064149E+03  d E =0.299494E-01
 trial-energy change:    0.029949  1 .order    0.051943   -0.824186    0.928072
 step:   0.4892(harm=  0.4704)  dis= 0.02651  next Energy=  -590.875602 (dE=-0.204E+00)
 bond charge predicted
 wavefunctions rotated
       N       E                     dE             d eps       ncg     rms          ort
 gam= 0.000 g(H,U,f)=  0.461E+01 0.418E-01 0.110E-08 ort(H,U,f) = 0.000E+00 0.000E+00 0.000E+00
SDA:   1    -0.588841015359E+03    0.18005E+01    0.00000E+00  1200   0.465E+01 0.000E+00
 gam= 0.000 trial= 0.626  step= 0.671 mean= 0.626
 gam= 0.328 g(H,U,f)=  0.148E+01 0.474E-01 0.195E-07 ort(H,U,f) = 0.218E-01-0.341E-01-0.168E-07
CGA:   2    -0.590400077181E+03   -0.15591E+01   -0.15595E+01  1200   0.153E+01-0.123E-01
 gam= 0.328 trial= 0.628  step= 0.524 mean= 0.628
 gam= 0.148 g(H,U,f)=  0.218E+00 0.860E-02 0.223E-09 ort(H,U,f) =-0.606E-02 0.843E-02 0.643E-09
CGA:   3    -0.590799252847E+03   -0.39918E+00   -0.39954E+00  1200   0.227E+00 0.237E-02
 gam= 0.148 trial= 0.623  step= 0.513 mean= 0.623
 gam= 0.190 g(H,U,f)=  0.407E-01 0.250E-02 0.122E-12 ort(H,U,f) =-0.437E-02 0.435E-02-0.500E-11
CGA:   4    -0.590857512356E+03   -0.58260E-01   -0.58251E-01  1200   0.432E-01-0.252E-04
 gam= 0.190 trial= 0.618  step= 0.588 mean= 0.618
 gam= 0.247 g(H,U,f)=  0.951E-02 0.117E-02 0.150E-10 ort(H,U,f) =-0.222E-02 0.218E-02 0.854E-11
CGA:   5    -0.590870205231E+03   -0.12693E-01   -0.12692E-01  1200   0.107E-01-0.424E-04
 gam= 0.247 trial= 0.616  step= 0.665 mean= 0.616
 gam= 0.318 g(H,U,f)=  0.304E-02 0.365E-03 0.119E-11 ort(H,U,f) =-0.901E-03 0.901E-03 0.404E-11
CGA:   6    -0.590873749932E+03   -0.35447E-02   -0.35447E-02  1200   0.340E-02-0.647E-06
 gam= 0.318 trial= 0.619  step= 0.736 mean= 0.619
 gam= 0.302 g(H,U,f)=  0.957E-03 0.689E-04 0.341E-12 ort(H,U,f) =-0.227E-03 0.237E-03-0.118E-11
CGA:   7    -0.590875001274E+03   -0.12513E-02   -0.12508E-02  1200   0.103E-02 0.918E-05
 gam= 0.302 trial= 0.624  step= 0.736 mean= 0.624
 gam= 0.244 g(H,U,f)=  0.242E-03 0.809E-05 0.105E-12 ort(H,U,f) =-0.401E-04 0.408E-04 0.785E-14
CGA:   8    -0.590875380096E+03   -0.37882E-03   -0.37879E-03  1200   0.250E-03 0.637E-06
 gam= 0.244 trial= 0.630  step= 0.702 mean= 0.630
 gam= 0.217 g(H,U,f)=  0.530E-04 0.125E-05 0.171E-13 ort(H,U,f) =-0.495E-05 0.406E-05-0.422E-13
CGA:   9    -0.590875467900E+03   -0.87803E-04   -0.87835E-04  1200   0.542E-04-0.882E-06
 gam= 0.217 trial= 0.634  step= 0.718 mean= 0.634
 gam= 0.220 g(H,U,f)=  0.117E-04 0.253E-06 0.340E-14 ort(H,U,f) =-0.170E-06 0.165E-06 0.356E-14
CGA:  10    -0.590875487284E+03   -0.19384E-04   -0.19383E-04  1200   0.119E-04-0.502E-08
 gam= 0.220 trial= 0.638  step= 0.728 mean= 0.638
 gam= 0.246 g(H,U,f)=  0.284E-05 0.852E-07 0.120E-15 ort(H,U,f) = 0.493E-06-0.256E-07-0.787E-15
CGA:  11    -0.590875491644E+03   -0.43608E-05   -0.43396E-05  1200   0.293E-05 0.468E-06
 gam= 0.246 trial= 0.642  step= 0.741 mean= 0.642
 final diagonalization
   3 F= -.59087549E+03 E0= -.59087549E+03  d E =-.204049E+00
 curvature:  -0.23 expect dE=-0.193E+00 dE for cont linesearch -0.933E-09
 trial: gam= 0.99709 g(F)=  0.822E+00 g(S)=  0.000E+00 ort = 0.572E-04 (trialstep = 0.451E+00)
 search vector abs. value=  0.164E+01
 bond charge predicted
 wavefunctions rotated
       N       E                     dE             d eps       ncg     rms          ort
 gam= 0.000 g(H,U,f)=  0.611E+01 0.157E+00 0.164E-08 ort(H,U,f) = 0.000E+00 0.000E+00 0.000E+00
SDA:   1    -0.588472155535E+03    0.24033E+01    0.00000E+00  1200   0.627E+01 0.000E+00
 gam= 0.000 trial= 0.647  step= 0.585 mean= 0.647
 gam= 0.337 g(H,U,f)=  0.203E+01 0.779E-01 0.309E-12 ort(H,U,f) = 0.120E+00-0.104E+00-0.615E-12
CGA:   2    -0.590305565605E+03   -0.18334E+01   -0.18346E+01  1200   0.211E+01 0.154E-01
 gam= 0.337 trial= 0.644  step= 0.557 mean= 0.644
 gam= 0.170 g(H,U,f)=  0.346E+00 0.134E-01 0.209E-12 ort(H,U,f) =-0.563E-02 0.400E-02 0.280E-12
CGA:   3    -0.590895813782E+03   -0.59025E+00   -0.59003E+00  1200   0.360E+00-0.163E-02
 gam= 0.170 trial= 0.640  step= 0.495 mean= 0.640
 gam= 0.185 g(H,U,f)=  0.632E-01 0.331E-02 0.320E-13 ort(H,U,f) =-0.571E-02 0.584E-02-0.112E-12
CGA:   4    -0.590984731785E+03   -0.88918E-01   -0.88944E-01  1200   0.665E-01 0.126E-03
 gam= 0.185 trial= 0.633  step= 0.568 mean= 0.633
 gam= 0.240 g(H,U,f)=  0.144E-01 0.155E-02 0.235E-13 ort(H,U,f) =-0.268E-02 0.276E-02-0.126E-13
CGA:   5    -0.591003614893E+03   -0.18883E-01   -0.18886E-01  1200   0.159E-01 0.781E-04
 gam= 0.240 trial= 0.629  step= 0.642 mean= 0.629
 gam= 0.301 g(H,U,f)=  0.431E-02 0.489E-03 0.203E-13 ort(H,U,f) =-0.115E-02 0.116E-02 0.254E-13
CGA:   6    -0.591008737306E+03   -0.51224E-02   -0.51224E-02  1200   0.479E-02 0.983E-05
 gam= 0.301 trial= 0.630  step= 0.757 mean= 0.630
 gam= 0.321 g(H,U,f)=  0.143E-02 0.108E-03 0.898E-14 ort(H,U,f) =-0.355E-03 0.347E-03-0.185E-13
CGA:   7    -0.591010551482E+03   -0.18142E-02   -0.18147E-02  1200   0.154E-02-0.875E-05
 gam= 0.321 trial= 0.636  step= 0.743 mean= 0.636
 gam= 0.259 g(H,U,f)=  0.389E-03 0.924E-05 0.661E-16 ort(H,U,f) =-0.537E-04 0.554E-04-0.231E-15
CGA:   8    -0.591011121660E+03   -0.57018E-03   -0.57008E-03  1200   0.398E-03 0.179E-05
 gam= 0.259 trial= 0.642  step= 0.708 mean= 0.642
 gam= 0.224 g(H,U,f)=  0.882E-04 0.122E-05 0.106E-16 ort(H,U,f) =-0.374E-05 0.559E-05-0.245E-17
CGA:   9    -0.591011262847E+03   -0.14119E-03   -0.14113E-03  1200   0.894E-04 0.185E-05
 gam= 0.224 trial= 0.645  step= 0.742 mean= 0.645
 gam= 0.227 g(H,U,f)=  0.199E-04 0.412E-06 0.207E-15 ort(H,U,f) = 0.295E-07-0.225E-07 0.432E-16
CGA:  10    -0.591011296186E+03   -0.33339E-04   -0.33338E-04  1200   0.203E-04 0.704E-08
 gam= 0.227 trial= 0.650  step= 0.794 mean= 0.650
 gam= 0.265 g(H,U,f)=  0.516E-05 0.209E-06 0.126E-16 ort(H,U,f) =-0.158E-06-0.586E-07-0.528E-16
CGA:  11    -0.591011304225E+03   -0.80389E-05   -0.80539E-05  1200   0.537E-05-0.216E-06
 gam= 0.265 trial= 0.657  step= 0.754 mean= 0.657
 gam= 0.237 g(H,U,f)=  0.121E-05 0.599E-07 0.648E-17 ort(H,U,f) = 0.125E-06 0.637E-07 0.988E-18
CGA:  12    -0.591011306239E+03   -0.20141E-05   -0.20051E-05  1200   0.127E-05 0.189E-06
 gam= 0.237 trial= 0.662  step= 0.791 mean= 0.662
 final diagonalization
   4 F= -.59101131E+03 E0= -.59101131E+03  d E =-.135815E+00
 trial-energy change:   -0.135815  1 .order   -0.129256   -0.370543    0.112031
 step:   0.3524(harm=  0.3462)  dis= 0.03279  next Energy=  -591.023463 (dE=-0.148E+00)
 bond charge predicted
 wavefunctions rotated
       N       E                     dE             d eps       ncg     rms          ort
 gam= 0.000 g(H,U,f)=  0.295E+00 0.811E-02 0.248E-11 ort(H,U,f) = 0.000E+00 0.000E+00 0.000E+00
SDA:   1    -0.590901721874E+03    0.10958E+00    0.00000E+00  1200   0.303E+00 0.000E+00
 gam= 0.000 trial= 0.668  step= 0.577 mean= 0.668
 gam= 0.338 g(H,U,f)=  0.990E-01 0.338E-02 0.208E-11 ort(H,U,f) = 0.467E-02-0.477E-02-0.438E-11
CGA:   2    -0.590989194013E+03   -0.87472E-01   -0.87456E-01  1200   0.102E+00-0.959E-04
 gam= 0.338 trial= 0.664  step= 0.560 mean= 0.664
 gam= 0.170 g(H,U,f)=  0.167E-01 0.695E-03 0.226E-12 ort(H,U,f) =-0.226E-03 0.250E-03 0.184E-12
CGA:   3    -0.591017848555E+03   -0.28655E-01   -0.28658E-01  1200   0.174E-01 0.234E-04
 gam= 0.170 trial= 0.659  step= 0.496 mean= 0.659
 gam= 0.183 g(H,U,f)=  0.303E-02 0.154E-03 0.116E-13 ort(H,U,f) =-0.286E-03 0.286E-03-0.523E-13
CGA:   4    -0.591022162190E+03   -0.43136E-02   -0.43135E-02  1200   0.318E-02 0.554E-06
 gam= 0.183 trial= 0.650  step= 0.570 mean= 0.650
 gam= 0.238 g(H,U,f)=  0.689E-03 0.684E-04 0.766E-14 ort(H,U,f) =-0.139E-03 0.126E-03-0.159E-14
CGA:   5    -0.591023069633E+03   -0.90744E-03   -0.90689E-03  1200   0.758E-03-0.137E-04
 gam= 0.238 trial= 0.646  step= 0.637 mean= 0.646
 gam= 0.295 g(H,U,f)=  0.200E-03 0.234E-04 0.393E-14 ort(H,U,f) =-0.559E-04 0.546E-04 0.471E-14
CGA:   6    -0.591023310061E+03   -0.24043E-03   -0.24042E-03  1200   0.224E-03-0.130E-05
 gam= 0.295 trial= 0.646  step= 0.745 mean= 0.646
 gam= 0.312 g(H,U,f)=  0.648E-04 0.503E-05 0.874E-15 ort(H,U,f) =-0.129E-04 0.159E-04-0.280E-14
CGA:   7    -0.591023393423E+03   -0.83362E-04   -0.83213E-04  1200   0.698E-04 0.301E-05
 gam= 0.312 trial= 0.651  step= 0.755 mean= 0.651
 gam= 0.269 g(H,U,f)=  0.183E-04 0.485E-06 0.463E-16 ort(H,U,f) =-0.280E-05 0.279E-05-0.586E-18
CGA:   8    -0.591023420115E+03   -0.26692E-04   -0.26693E-04  1200   0.187E-04-0.541E-08
 gam= 0.269 trial= 0.656  step= 0.723 mean= 0.656
 gam= 0.232 g(H,U,f)=  0.429E-05 0.527E-07 0.135E-17 ort(H,U,f) =-0.600E-06 0.261E-06-0.781E-17
CGA:   9    -0.591023426874E+03   -0.67594E-05   -0.67712E-05  1200   0.434E-05-0.339E-06
 gam= 0.232 trial= 0.659  step= 0.737 mean= 0.659
 gam= 0.219 g(H,U,f)=  0.930E-06 0.190E-07 0.303E-16 ort(H,U,f) =-0.275E-07-0.107E-07-0.187E-17
CGA:  10    -0.591023428445E+03   -0.15701E-05   -0.15713E-05  1200   0.949E-06-0.381E-07
 gam= 0.219 trial= 0.663  step= 0.767 mean= 0.663
 final diagonalization
   5 F= -.59102343E+03 E0= -.59102343E+03  d E =-.147937E+00
 curvature:  -0.34 expect dE=-0.907E-01 dE for cont linesearch -0.137E-07
 trial: gam= 0.32940 g(F)=  0.263E+00 g(S)=  0.000E+00 ort = 0.256E-03 (trialstep = 0.431E+00)
 search vector abs. value=  0.442E+00
 bond charge predicted
 wavefunctions rotated
       N       E                     dE             d eps       ncg     rms          ort
 gam= 0.000 g(H,U,f)=  0.164E+01 0.137E-01 0.141E-10 ort(H,U,f) = 0.000E+00 0.000E+00 0.000E+00
SDA:   1    -0.590337281530E+03    0.68615E+00    0.00000E+00  1200   0.166E+01 0.000E+00
 gam= 0.000 trial= 0.669  step= 0.714 mean= 0.669
 gam= 0.290 g(H,U,f)=  0.463E+00 0.188E-01 0.714E-13 ort(H,U,f) = 0.154E-01-0.147E-01-0.553E-13
CGA:   2    -0.590929036070E+03   -0.59175E+00   -0.59172E+00  1200   0.482E+00 0.765E-03
 gam= 0.290 trial= 0.671  step= 0.542 mean= 0.671
 gam= 0.147 g(H,U,f)=  0.679E-01 0.287E-02 0.895E-14 ort(H,U,f) =-0.280E-02 0.268E-02 0.291E-12
CGA:   3    -0.591059620025E+03   -0.13058E+00   -0.13057E+00  1200   0.708E-01-0.123E-03
 gam= 0.147 trial= 0.664  step= 0.522 mean= 0.664
 gam= 0.228 g(H,U,f)=  0.154E-01 0.720E-03 0.336E-14 ort(H,U,f) =-0.149E-02 0.148E-02 0.354E-13
CGA:   4    -0.591078101031E+03   -0.18481E-01   -0.18480E-01  1200   0.162E-01-0.105E-04
 gam= 0.228 trial= 0.657  step= 0.578 mean= 0.657
 gam= 0.260 g(H,U,f)=  0.375E-02 0.457E-03 0.180E-12 ort(H,U,f) =-0.769E-03 0.779E-03 0.877E-13
CGA:   5    -0.591082770939E+03   -0.46699E-02   -0.46703E-02  1200   0.421E-02 0.103E-04
 gam= 0.260 trial= 0.653  step= 0.702 mean= 0.653
 gam= 0.318 g(H,U,f)=  0.125E-02 0.904E-04 0.282E-14 ort(H,U,f) =-0.250E-03 0.253E-03-0.340E-13
CGA:   6    -0.591084250264E+03   -0.14793E-02   -0.14793E-02  1200   0.134E-02 0.253E-05
 gam= 0.318 trial= 0.656  step= 0.739 mean= 0.656
 gam= 0.306 g(H,U,f)=  0.396E-03 0.130E-04 0.546E-14 ort(H,U,f) =-0.490E-04 0.473E-04-0.117E-13
CGA:   7    -0.591084744515E+03   -0.49425E-03   -0.49432E-03  1200   0.409E-03-0.170E-05
 gam= 0.306 trial= 0.660  step= 0.694 mean= 0.660
 gam= 0.228 g(H,U,f)=  0.912E-04 0.230E-05 0.112E-14 ort(H,U,f) =-0.793E-05 0.898E-05-0.847E-15
CGA:   8    -0.591084886538E+03   -0.14202E-03   -0.14200E-03  1200   0.935E-04 0.104E-05
 gam= 0.228 trial= 0.662  step= 0.694 mean= 0.662
 gam= 0.227 g(H,U,f)=  0.205E-04 0.756E-06 0.202E-14 ort(H,U,f) = 0.100E-05-0.543E-06-0.126E-14
CGA:   9    -0.591084919042E+03   -0.32505E-04   -0.32498E-04  1200   0.212E-04 0.457E-06
 gam= 0.227 trial= 0.663  step= 0.732 mean= 0.663
 gam= 0.240 g(H,U,f)=  0.502E-05 0.651E-07 0.248E-17 ort(H,U,f) =-0.290E-06 0.103E-07 0.599E-16
CGA:  10    -0.591084926834E+03   -0.77916E-05   -0.78014E-05  1200   0.509E-05-0.280E-06
 gam= 0.240 trial= 0.667  step= 0.807 mean= 0.667
 gam= 0.271 g(H,U,f)=  0.134E-05 0.370E-07 0.597E-17 ort(H,U,f) =-0.218E-06 0.102E-07 0.260E-16
CGA:  11    -0.591084928844E+03   -0.20101E-05   -0.20247E-05  1200   0.138E-05-0.208E-06
 gam= 0.271 trial= 0.674  step= 0.734 mean= 0.674
 final diagonalization
   6 F= -.59108493E+03 E0= -.59108493E+03  d E =-.615004E-01
 trial-energy change:   -0.061500  1 .order   -0.061762   -0.113614   -0.009910
 step:   0.4731(harm=  0.4724)  dis= 0.02141  next Energy=  -591.085410 (dE=-0.620E-01)
 bond charge predicted
 wavefunctions rotated
       N       E                     dE             d eps       ncg     rms          ort
 gam= 0.000 g(H,U,f)=  0.155E-01 0.134E-03 0.192E-12 ort(H,U,f) = 0.000E+00 0.000E+00 0.000E+00
SDA:   1    -0.591078350753E+03    0.65761E-02    0.00000E+00  1200   0.157E-01 0.000E+00
 gam= 0.000 trial= 0.677  step= 0.713 mean= 0.677
 gam= 0.291 g(H,U,f)=  0.439E-02 0.175E-03 0.268E-12 ort(H,U,f) = 0.146E-03-0.141E-03-0.207E-12
CGA:   2    -0.591083934845E+03   -0.55841E-02   -0.55840E-02  1200   0.457E-02 0.482E-05
 gam= 0.291 trial= 0.678  step= 0.542 mean= 0.678
 gam= 0.146 g(H,U,f)=  0.641E-03 0.272E-04 0.323E-15 ort(H,U,f) =-0.277E-04 0.237E-04 0.784E-14
CGA:   3    -0.591085173685E+03   -0.12388E-02   -0.12386E-02  1200   0.668E-03-0.402E-05
 gam= 0.146 trial= 0.672  step= 0.521 mean= 0.672
 gam= 0.227 g(H,U,f)=  0.145E-03 0.652E-05 0.825E-16 ort(H,U,f) =-0.135E-04 0.134E-04 0.753E-15
CGA:   4    -0.591085347685E+03   -0.17400E-03   -0.17399E-03  1200   0.152E-03-0.995E-07
 gam= 0.227 trial= 0.664  step= 0.573 mean= 0.664
 gam= 0.257 g(H,U,f)=  0.347E-04 0.424E-05 0.297E-14 ort(H,U,f) =-0.592E-05 0.714E-05 0.153E-14
CGA:   5    -0.591085391117E+03   -0.43431E-04   -0.43487E-04  1200   0.390E-04 0.122E-05
 gam= 0.257 trial= 0.660  step= 0.701 mean= 0.660
 gam= 0.323 g(H,U,f)=  0.117E-04 0.876E-06 0.109E-16 ort(H,U,f) =-0.228E-05 0.240E-05-0.208E-15
CGA:   6    -0.591085404876E+03   -0.13760E-04   -0.13757E-04  1200   0.126E-04 0.122E-06
 gam= 0.323 trial= 0.662  step= 0.753 mean= 0.662
 gam= 0.322 g(H,U,f)=  0.394E-05 0.120E-06 0.487E-16 ort(H,U,f) =-0.662E-06 0.414E-06-0.119E-15
CGA:   7    -0.591085409620E+03   -0.47440E-05   -0.47555E-05  1200   0.406E-05-0.247E-06
 gam= 0.322 trial= 0.666  step= 0.670 mean= 0.666
 gam= 0.217 g(H,U,f)=  0.860E-06 0.189E-07 0.837E-17 ort(H,U,f) = 0.544E-08 0.800E-07-0.424E-17
CGA:   8    -0.591085410954E+03   -0.13331E-05   -0.13330E-05  1200   0.879E-06 0.854E-07
 gam= 0.217 trial= 0.666  step= 0.661 mean= 0.666
 final diagonalization
   7 F= -.59108541E+03 E0= -.59108541E+03  d E =-.619825E-01
 curvature:  -0.40 expect dE=-0.176E+00 dE for cont linesearch -0.403E-13
 trial: gam= 1.68642 g(F)=  0.445E+00 g(S)=  0.000E+00 ort =-0.212E-06 (trialstep = 0.114E+00)
 search vector abs. value=  0.170E+01
 bond charge predicted
 wavefunctions rotated
       N       E                     dE             d eps       ncg     rms          ort
 gam= 0.000 g(H,U,f)=  0.446E+00 0.114E-01 0.102E-10 ort(H,U,f) = 0.000E+00 0.000E+00 0.000E+00
SDA:   1    -0.590933130586E+03    0.15228E+00    0.00000E+00  1200   0.457E+00 0.000E+00
 gam= 0.000 trial= 0.666  step= 0.667 mean= 0.666
 gam= 0.323 g(H,U,f)=  0.138E+00 0.997E-02 0.155E-11 ort(H,U,f) = 0.101E-01-0.102E-01-0.157E-11
CGA:   2    -0.591085572537E+03   -0.15244E+00   -0.15244E+00  1200   0.148E+00-0.111E-03
 gam= 0.323 trial= 0.666  step= 0.536 mean= 0.666
 gam= 0.145 g(H,U,f)=  0.210E-01 0.457E-03 0.187E-13 ort(H,U,f) =-0.252E-03 0.229E-03 0.214E-12
CGA:   3    -0.591125096690E+03   -0.39524E-01   -0.39528E-01  1200   0.214E-01-0.228E-04
 gam= 0.145 trial= 0.660  step= 0.523 mean= 0.660
 gam= 0.206 g(H,U,f)=  0.423E-02 0.188E-03 0.479E-15 ort(H,U,f) =-0.245E-03 0.238E-03-0.900E-14
CGA:   4    -0.591130695066E+03   -0.55984E-02   -0.55975E-02  1200   0.442E-02-0.718E-05
 gam= 0.206 trial= 0.653  step= 0.589 mean= 0.653
 gam= 0.246 g(H,U,f)=  0.984E-03 0.102E-03 0.515E-13 ort(H,U,f) =-0.150E-03 0.151E-03 0.147E-13
CGA:   5    -0.591131995775E+03   -0.13007E-02   -0.13008E-02  1200   0.109E-02 0.146E-05
 gam= 0.246 trial= 0.650  step= 0.684 mean= 0.650
 gam= 0.320 g(H,U,f)=  0.329E-03 0.191E-04 0.435E-15 ort(H,U,f) =-0.467E-04 0.494E-04 0.557E-14
CGA:   6    -0.591132367472E+03   -0.37170E-03   -0.37165E-03  1200   0.348E-03 0.274E-05
 gam= 0.320 trial= 0.651  step= 0.717 mean= 0.651
 gam= 0.295 g(H,U,f)=  0.968E-04 0.586E-05 0.565E-15 ort(H,U,f) =-0.156E-04 0.152E-04-0.263E-14
CGA:   7    -0.591132492342E+03   -0.12487E-03   -0.12488E-03  1200   0.103E-03-0.400E-06
 gam= 0.295 trial= 0.655  step= 0.719 mean= 0.655
 gam= 0.236 g(H,U,f)=  0.237E-04 0.502E-06 0.266E-15 ort(H,U,f) =-0.227E-05 0.200E-05 0.146E-15
CGA:   8    -0.591132529174E+03   -0.36832E-04   -0.36841E-04  1200   0.242E-04-0.265E-06
 gam= 0.236 trial= 0.658  step= 0.686 mean= 0.658
 gam= 0.212 g(H,U,f)=  0.503E-05 0.108E-06 0.892E-16 ort(H,U,f) = 0.222E-06 0.204E-06-0.176E-15
CGA:   9    -0.591132537462E+03   -0.82883E-05   -0.82826E-05  1200   0.514E-05 0.426E-06
 gam= 0.212 trial= 0.659  step= 0.767 mean= 0.659
 gam= 0.253 g(H,U,f)=  0.128E-05 0.229E-07 0.165E-16 ort(H,U,f) =-0.157E-06 0.154E-07 0.224E-16
CGA:  10    -0.591132539459E+03   -0.19967E-05   -0.20040E-05  1200   0.130E-05-0.141E-06
 gam= 0.253 trial= 0.665  step= 0.890 mean= 0.665
 final diagonalization
   8 F= -.59113254E+03 E0= -.59113254E+03  d E =-.471285E-01
 ZBRENT: can't locate minimum, use default step
 trial-energy change:   -0.047129  1 .order   -0.047131   -0.050823   -0.043440
 step:   0.4564(harm=  0.7853)  dis= 0.03422  next Energy=  -591.260335 (dE=-0.175E+00)
 bond charge predicted
 wavefunctions rotated
       N       E                     dE             d eps       ncg     rms          ort
 gam= 0.000 g(H,U,f)=  0.401E+01 0.100E+00 0.595E-10 ort(H,U,f) = 0.000E+00 0.000E+00 0.000E+00
SDA:   1    -0.589436734806E+03    0.16958E+01    0.00000E+00  1200   0.411E+01 0.000E+00
 gam= 0.000 trial= 0.676  step= 0.666 mean= 0.676
 gam= 0.325 g(H,U,f)=  0.125E+01 0.917E-01 0.186E-15 ort(H,U,f) = 0.866E-01-0.904E-01-0.268E-16
CGA:   2    -0.590806049272E+03   -0.13693E+01   -0.13693E+01  1200   0.134E+01-0.385E-02
 gam= 0.325 trial= 0.675  step= 0.533 mean= 0.675
 gam= 0.146 g(H,U,f)=  0.191E+00 0.425E-02 0.656E-15 ort(H,U,f) =-0.187E-02 0.246E-02 0.873E-13
CGA:   3    -0.591161601419E+03   -0.35555E+00   -0.35578E+00  1200   0.195E+00 0.589E-03
 gam= 0.146 trial= 0.668  step= 0.525 mean= 0.668
 gam= 0.205 g(H,U,f)=  0.383E-01 0.174E-02 0.103E-12 ort(H,U,f) =-0.231E-02 0.223E-02-0.220E-12
CGA:   4    -0.591212823762E+03   -0.51222E-01   -0.51207E-01  1200   0.401E-01-0.780E-04
 gam= 0.205 trial= 0.661  step= 0.592 mean= 0.661
 gam= 0.247 g(H,U,f)=  0.895E-02 0.952E-03 0.416E-13 ort(H,U,f) =-0.141E-02 0.141E-02-0.357E-13
CGA:   5    -0.591224674138E+03   -0.11850E-01   -0.11850E-01  1200   0.990E-02-0.220E-05
 gam= 0.247 trial= 0.658  step= 0.688 mean= 0.658
 gam= 0.324 g(H,U,f)=  0.304E-02 0.177E-03 0.899E-14 ort(H,U,f) =-0.453E-03 0.463E-03-0.173E-13
CGA:   6    -0.591228082332E+03   -0.34082E-02   -0.34080E-02  1200   0.321E-02 0.995E-05
 gam= 0.324 trial= 0.659  step= 0.716 mean= 0.659
 gam= 0.293 g(H,U,f)=  0.886E-03 0.539E-04 0.121E-13 ort(H,U,f) =-0.141E-03 0.141E-03 0.378E-14
CGA:   7    -0.591229233790E+03   -0.11515E-02   -0.11515E-02  1200   0.940E-03-0.287E-06
 gam= 0.293 trial= 0.662  step= 0.718 mean= 0.662
 gam= 0.236 g(H,U,f)=  0.217E-03 0.477E-05 0.101E-17 ort(H,U,f) =-0.194E-04 0.190E-04 0.107E-15
CGA:   8    -0.591229571487E+03   -0.33770E-03   -0.33771E-03  1200   0.222E-03-0.353E-06
 gam= 0.236 trial= 0.665  step= 0.696 mean= 0.665
 gam= 0.216 g(H,U,f)=  0.469E-04 0.101E-05 0.565E-15 ort(H,U,f) =-0.563E-06 0.178E-05 0.591E-15
CGA:   9    -0.591229648544E+03   -0.77057E-04   -0.77037E-04  1200   0.479E-04 0.122E-05
 gam= 0.216 trial= 0.666  step= 0.748 mean= 0.666
 gam= 0.238 g(H,U,f)=  0.112E-04 0.221E-06 0.864E-16 ort(H,U,f) =-0.624E-06 0.166E-06 0.257E-15
CGA:  10    -0.591229666553E+03   -0.18009E-04   -0.18028E-04  1200   0.114E-04-0.458E-06
 gam= 0.238 trial= 0.670  step= 0.826 mean= 0.670
 gam= 0.285 g(H,U,f)=  0.318E-05 0.761E-07 0.658E-18 ort(H,U,f) =-0.459E-06-0.132E-07 0.123E-16
CGA:  11    -0.591229671191E+03   -0.46376E-05   -0.46746E-05  1200   0.325E-05-0.473E-06
 gam= 0.285 trial= 0.678  step= 0.781 mean= 0.678
 final diagonalization
   9 F= -.59122967E+03 E0= -.59122967E+03  d E =-.144260E+00
 curvature:  -1.14 expect dE=-0.255E+00 dE for cont linesearch -0.234E-01
 ZBRENT: increasing intervall
 opt :   1.1409  next Energy=  -591.225097 (dE=-0.140E+00)
 bond charge predicted
 wavefunctions rotated
       N       E                     dE             d eps       ncg     rms          ort
 gam= 0.000 g(H,U,f)=  0.161E+02 0.391E+00 0.390E-10 ort(H,U,f) = 0.000E+00 0.000E+00 0.000E+00
SDA:   1    -0.584063908668E+03    0.71658E+01    0.00000E+00  1200   0.165E+02 0.000E+00
 gam= 0.000 trial= 0.683  step= 0.662 mean= 0.683
 gam= 0.328 g(H,U,f)=  0.502E+01 0.382E+00 0.154E-14 ort(H,U,f) = 0.325E+00-0.353E+00-0.388E-15
CGA:   2    -0.589521040716E+03   -0.54571E+01   -0.54567E+01  1200   0.541E+01-0.285E-01
 gam= 0.328 trial= 0.682  step= 0.528 mean= 0.682
 gam= 0.148 g(H,U,f)=  0.781E+00 0.192E-01 0.297E-17 ort(H,U,f) =-0.537E-02 0.134E-01 0.320E-15
CGA:   3    -0.590943812015E+03   -0.14228E+01   -0.14254E+01  1200   0.800E+00 0.808E-02
 gam= 0.148 trial= 0.675  step= 0.529 mean= 0.675
 gam= 0.205 g(H,U,f)=  0.156E+00 0.784E-02 0.351E-14 ort(H,U,f) =-0.107E-01 0.103E-01-0.650E-14
CGA:   4    -0.591155936120E+03   -0.21212E+00   -0.21201E+00  1200   0.164E+00-0.423E-03
 gam= 0.205 trial= 0.667  step= 0.597 mean= 0.667
 gam= 0.251 g(H,U,f)=  0.368E-01 0.430E-02 0.994E-16 ort(H,U,f) =-0.642E-02 0.639E-02-0.130E-15
CGA:   5    -0.591204804935E+03   -0.48869E-01   -0.48869E-01  1200   0.411E-01-0.244E-04
 gam= 0.251 trial= 0.664  step= 0.695 mean= 0.664
 gam= 0.332 g(H,U,f)=  0.128E-01 0.820E-03 0.140E-15 ort(H,U,f) =-0.213E-02 0.216E-02-0.179E-15
CGA:   6    -0.591219093683E+03   -0.14289E-01   -0.14288E-01  1200   0.136E-01 0.284E-04
 gam= 0.332 trial= 0.665  step= 0.718 mean= 0.665
 gam= 0.292 g(H,U,f)=  0.374E-02 0.239E-03 0.243E-15 ort(H,U,f) =-0.643E-03 0.642E-03 0.118E-15
CGA:   7    -0.591223996583E+03   -0.49029E-02   -0.49030E-02  1200   0.398E-02-0.947E-06
 gam= 0.292 trial= 0.668  step= 0.719 mean= 0.668
 gam= 0.236 g(H,U,f)=  0.915E-03 0.228E-04 0.840E-19 ort(H,U,f) =-0.912E-04 0.910E-04 0.559E-17
CGA:   8    -0.591225426889E+03   -0.14303E-02   -0.14303E-02  1200   0.938E-03-0.186E-06
 gam= 0.236 trial= 0.671  step= 0.699 mean= 0.671
 gam= 0.217 g(H,U,f)=  0.198E-03 0.460E-05 0.198E-16 ort(H,U,f) =-0.629E-05 0.827E-05 0.241E-16
CGA:   9    -0.591225754809E+03   -0.32792E-03   -0.32789E-03  1200   0.203E-03 0.198E-05
 gam= 0.217 trial= 0.672  step= 0.742 mean= 0.672
 gam= 0.233 g(H,U,f)=  0.462E-04 0.111E-05 0.406E-17 ort(H,U,f) =-0.214E-05 0.107E-05 0.123E-16
CGA:  10    -0.591225830225E+03   -0.75416E-04   -0.75453E-04  1200   0.473E-04-0.107E-05
 gam= 0.233 trial= 0.675  step= 0.814 mean= 0.675
 gam= 0.281 g(H,U,f)=  0.130E-04 0.356E-06 0.176E-19 ort(H,U,f) =-0.890E-06 0.304E-07 0.498E-18
CGA:  11    -0.591225849320E+03   -0.19095E-04   -0.19155E-04  1200   0.133E-04-0.859E-06
 gam= 0.281 trial= 0.682  step= 0.781 mean= 0.682
 gam= 0.264 g(H,U,f)=  0.339E-05 0.124E-06 0.179E-18 ort(H,U,f) =-0.184E-06 0.807E-07 0.537E-18
CGA:  12    -0.591225854418E+03   -0.50978E-05   -0.51028E-05  1200   0.351E-05-0.103E-06
 gam= 0.264 trial= 0.687  step= 0.771 mean= 0.687
 gam= 0.268 g(H,U,f)=  0.898E-06 0.434E-07 0.530E-19 ort(H,U,f) = 0.111E-06 0.374E-07-0.185E-18
CGA:  13    -0.591225855768E+03   -0.13504E-05   -0.13446E-05  1200   0.941E-06 0.148E-06
 gam= 0.268 trial= 0.691  step= 0.901 mean= 0.691
 final diagonalization
  10 F= -.59122586E+03 E0= -.59122586E+03  d E =-.140445E+00
 curvature:   0.22 expect dE= 0.222E+00 dE for cont linesearch  0.510E-02
 ZBRENT: bracketing found
 ZBRENT: interpolating
 opt :   0.7894  next Energy=  -591.260813 (dE=-0.175E+00)
 bond charge predicted
 wavefunctions rotated
       N       E                     dE             d eps       ncg     rms          ort
 gam= 0.000 g(H,U,f)=  0.428E+01 0.118E+00 0.599E-12 ort(H,U,f) = 0.000E+00 0.000E+00 0.000E+00
SDA:   1    -0.589352139348E+03    0.18737E+01    0.00000E+00  1200   0.439E+01 0.000E+00
 gam= 0.000 trial= 0.702  step= 0.664 mean= 0.702
 gam= 0.318 g(H,U,f)=  0.130E+01 0.927E-01 0.134E-08 ort(H,U,f) = 0.106E+00-0.101E+00-0.136E-08
CGA:   2    -0.590810692871E+03   -0.14586E+01   -0.14587E+01  1200   0.140E+01 0.480E-02
 gam= 0.318 trial= 0.700  step= 0.544 mean= 0.700
 gam= 0.144 g(H,U,f)=  0.196E+00 0.488E-02 0.531E-13 ort(H,U,f) =-0.160E-02 0.192E-02 0.656E-12
CGA:   3    -0.591190655187E+03   -0.37996E+00   -0.37989E+00  1200   0.201E+00 0.320E-03
 gam= 0.144 trial= 0.692  step= 0.523 mean= 0.692
 gam= 0.205 g(H,U,f)=  0.392E-01 0.209E-02 0.422E-15 ort(H,U,f) =-0.253E-02 0.261E-02 0.719E-14
CGA:   4    -0.591243276834E+03   -0.52622E-01   -0.52639E-01  1200   0.413E-01 0.827E-04
 gam= 0.205 trial= 0.684  step= 0.595 mean= 0.684
 gam= 0.246 g(H,U,f)=  0.911E-02 0.105E-02 0.138E-13 ort(H,U,f) =-0.163E-02 0.163E-02 0.566E-14
CGA:   5    -0.591255562194E+03   -0.12285E-01   -0.12286E-01  1200   0.102E-01 0.540E-05
 gam= 0.246 trial= 0.679  step= 0.694 mean= 0.679
 gam= 0.320 g(H,U,f)=  0.304E-02 0.207E-03 0.352E-16 ort(H,U,f) =-0.528E-03 0.528E-03 0.622E-15
CGA:   6    -0.591259085995E+03   -0.35238E-02   -0.35238E-02  1200   0.325E-02-0.266E-06
 gam= 0.320 trial= 0.680  step= 0.720 mean= 0.680
 gam= 0.297 g(H,U,f)=  0.904E-03 0.613E-04 0.178E-16 ort(H,U,f) =-0.161E-03 0.167E-03-0.156E-15
CGA:   7    -0.591260255215E+03   -0.11692E-02   -0.11691E-02  1200   0.966E-03 0.542E-05
 gam= 0.297 trial= 0.682  step= 0.715 mean= 0.682
 gam= 0.235 g(H,U,f)=  0.221E-03 0.549E-05 0.311E-16 ort(H,U,f) =-0.205E-04 0.219E-04 0.376E-16
CGA:   8    -0.591260601046E+03   -0.34583E-03   -0.34581E-03  1200   0.227E-03 0.135E-05
 gam= 0.235 trial= 0.684  step= 0.702 mean= 0.684
 gam= 0.219 g(H,U,f)=  0.484E-04 0.130E-05 0.102E-16 ort(H,U,f) =-0.359E-05 0.251E-05-0.228E-16
CGA:   9    -0.591260680777E+03   -0.79731E-04   -0.79741E-04  1200   0.497E-04-0.108E-05
 gam= 0.219 trial= 0.685  step= 0.735 mean= 0.685
 gam= 0.226 g(H,U,f)=  0.110E-04 0.213E-06 0.909E-18 ort(H,U,f) = 0.245E-06 0.163E-06 0.158E-17
CGA:  10    -0.591260698958E+03   -0.18181E-04   -0.18171E-04  1200   0.112E-04 0.409E-06
 gam= 0.226 trial= 0.687  step= 0.769 mean= 0.687
 gam= 0.251 g(H,U,f)=  0.275E-05 0.679E-07 0.289E-19 ort(H,U,f) = 0.441E-06 0.251E-07 0.229E-18
CGA:  11    -0.591260703331E+03   -0.43724E-05   -0.43533E-05  1200   0.282E-05 0.466E-06
 gam= 0.251 trial= 0.691  step= 0.786 mean= 0.691
 final diagonalization
  11 F= -.59126070E+03 E0= -.59126070E+03  d E =-.175292E+00
 curvature:  -1.36 expect dE=-0.598E+00 dE for cont linesearch -0.163E-06
 trial: gam= 1.00739 g(F)=  0.440E+00 g(S)=  0.000E+00 ort =-0.452E-03 (trialstep = 0.196E+00)
 search vector abs. value=  0.217E+01
 bond charge predicted
 wavefunctions rotated
       N       E                     dE             d eps       ncg     rms          ort
 gam= 0.000 g(H,U,f)=  0.197E+01 0.366E-01 0.767E-12 ort(H,U,f) = 0.000E+00 0.000E+00 0.000E+00
SDA:   1    -0.590434511506E+03    0.82619E+00    0.00000E+00  1200   0.200E+01 0.000E+00
 gam= 0.000 trial= 0.696  step= 0.688 mean= 0.696
 gam= 0.308 g(H,U,f)=  0.575E+00 0.409E-01 0.732E-17 ort(H,U,f) = 0.365E-01-0.369E-01-0.212E-17
CGA:   2    -0.591122978337E+03   -0.68847E+00   -0.68846E+00  1200   0.616E+00-0.384E-03
 gam= 0.308 trial= 0.696  step= 0.538 mean= 0.696
 gam= 0.144 g(H,U,f)=  0.868E-01 0.184E-02 0.472E-16 ort(H,U,f) =-0.780E-03 0.801E-03 0.412E-14
CGA:   3    -0.591288667939E+03   -0.16569E+00   -0.16572E+00  1200   0.887E-01 0.204E-04
 gam= 0.144 trial= 0.688  step= 0.528 mean= 0.688
 gam= 0.212 g(H,U,f)=  0.179E-01 0.917E-03 0.389E-17 ort(H,U,f) =-0.110E-02 0.109E-02 0.237E-15
CGA:   4    -0.591312083276E+03   -0.23415E-01   -0.23413E-01  1200   0.188E-01-0.108E-04
 gam= 0.212 trial= 0.680  step= 0.587 mean= 0.680
 gam= 0.250 g(H,U,f)=  0.425E-02 0.460E-03 0.694E-14 ort(H,U,f) =-0.706E-03 0.716E-03 0.241E-14
CGA:   5    -0.591317605290E+03   -0.55220E-02   -0.55224E-02  1200   0.471E-02 0.930E-05
 gam= 0.250 trial= 0.675  step= 0.695 mean= 0.675
 gam= 0.323 g(H,U,f)=  0.144E-02 0.807E-04 0.277E-16 ort(H,U,f) =-0.203E-03 0.205E-03-0.563E-15
CGA:   6    -0.591319241133E+03   -0.16358E-02   -0.16358E-02  1200   0.152E-02 0.262E-05
 gam= 0.323 trial= 0.676  step= 0.715 mean= 0.676
 gam= 0.302 g(H,U,f)=  0.434E-03 0.256E-04 0.104E-15 ort(H,U,f) =-0.670E-04 0.660E-04-0.301E-15
CGA:   7    -0.591319784749E+03   -0.54362E-03   -0.54364E-03  1200   0.459E-03-0.102E-05
 gam= 0.302 trial= 0.678  step= 0.711 mean= 0.678
 gam= 0.233 g(H,U,f)=  0.105E-03 0.225E-05 0.266E-16 ort(H,U,f) =-0.696E-05 0.770E-05-0.642E-17
CGA:   8    -0.591319947875E+03   -0.16313E-03   -0.16312E-03  1200   0.107E-03 0.743E-06
 gam= 0.233 trial= 0.680  step= 0.693 mean= 0.680
 gam= 0.215 g(H,U,f)=  0.225E-04 0.559E-06 0.249E-16 ort(H,U,f) = 0.840E-07 0.621E-06-0.245E-16
CGA:   9    -0.591319985063E+03   -0.37187E-04   -0.37182E-04  1200   0.230E-04 0.705E-06
 gam= 0.215 trial= 0.680  step= 0.750 mean= 0.680
 gam= 0.241 g(H,U,f)=  0.545E-05 0.899E-07 0.170E-17 ort(H,U,f) =-0.422E-06 0.729E-07 0.511E-17
CGA:  10    -0.591319993735E+03   -0.86727E-05   -0.86850E-05  1200   0.554E-05-0.349E-06
 gam= 0.241 trial= 0.684  step= 0.823 mean= 0.684
 gam= 0.285 g(H,U,f)=  0.154E-05 0.399E-07 0.361E-19 ort(H,U,f) =-0.237E-06-0.602E-08 0.429E-18
CGA:  11    -0.591319995964E+03   -0.22288E-05   -0.22456E-05  1200   0.158E-05-0.243E-06
 gam= 0.285 trial= 0.691  step= 0.772 mean= 0.691
 final diagonalization
  12 F= -.59132000E+03 E0= -.59132000E+03  d E =-.592926E-01
 trial-energy change:   -0.059293  1 .order   -0.059389   -0.086008   -0.032770
 step:   0.3162(harm=  0.3162)  dis= 0.02513  next Energy=  -591.330178 (dE=-0.695E-01)
 bond charge predicted
 wavefunctions rotated
       N       E                     dE             d eps       ncg     rms          ort
 gam= 0.000 g(H,U,f)=  0.744E+00 0.139E-01 0.466E-12 ort(H,U,f) = 0.000E+00 0.000E+00 0.000E+00
SDA:   1    -0.590994916496E+03    0.32508E+00    0.00000E+00  1200   0.758E+00 0.000E+00
 gam= 0.000 trial= 0.695  step= 0.687 mean= 0.695
 gam= 0.307 g(H,U,f)=  0.218E+00 0.154E-01 0.121E-13 ort(H,U,f) = 0.139E-01-0.140E-01-0.105E-13
CGA:   2    -0.591255601151E+03   -0.26068E+00   -0.26068E+00  1200   0.233E+00-0.725E-04
 gam= 0.307 trial= 0.694  step= 0.539 mean= 0.694
 gam= 0.144 g(H,U,f)=  0.328E-01 0.705E-03 0.546E-16 ort(H,U,f) =-0.328E-03 0.310E-03 0.235E-14
CGA:   3    -0.591318416070E+03   -0.62815E-01   -0.62819E-01  1200   0.335E-01-0.181E-04
 gam= 0.144 trial= 0.687  step= 0.528 mean= 0.687
 gam= 0.213 g(H,U,f)=  0.677E-02 0.349E-03 0.351E-16 ort(H,U,f) =-0.419E-03 0.415E-03 0.392E-15
CGA:   4    -0.591327252058E+03   -0.88360E-02   -0.88355E-02  1200   0.712E-02-0.337E-05
 gam= 0.213 trial= 0.679  step= 0.586 mean= 0.679
 gam= 0.250 g(H,U,f)=  0.160E-02 0.174E-03 0.242E-14 ort(H,U,f) =-0.266E-03 0.272E-03 0.104E-14
CGA:   5    -0.591329338194E+03   -0.20861E-02   -0.20864E-02  1200   0.178E-02 0.624E-05
 gam= 0.250 trial= 0.674  step= 0.695 mean= 0.674
 gam= 0.323 g(H,U,f)=  0.544E-03 0.307E-04 0.181E-18 ort(H,U,f) =-0.773E-04 0.784E-04-0.281E-16
CGA:   6    -0.591329956286E+03   -0.61809E-03   -0.61808E-03  1200   0.574E-03 0.110E-05
 gam= 0.323 trial= 0.675  step= 0.717 mean= 0.675
 gam= 0.304 g(H,U,f)=  0.165E-03 0.966E-05 0.205E-16 ort(H,U,f) =-0.259E-04 0.251E-04-0.101E-15
CGA:   7    -0.591330162234E+03   -0.20595E-03   -0.20597E-03  1200   0.175E-03-0.873E-06
 gam= 0.304 trial= 0.677  step= 0.709 mean= 0.677
 gam= 0.232 g(H,U,f)=  0.397E-04 0.847E-06 0.142E-16 ort(H,U,f) =-0.251E-05 0.290E-05 0.856E-17
CGA:   8    -0.591330224038E+03   -0.61804E-04   -0.61799E-04  1200   0.405E-04 0.392E-06
 gam= 0.232 trial= 0.679  step= 0.691 mean= 0.679
 gam= 0.214 g(H,U,f)=  0.847E-05 0.212E-06 0.761E-17 ort(H,U,f) = 0.182E-06 0.228E-06-0.120E-16
CGA:   9    -0.591330238080E+03   -0.14042E-04   -0.14040E-04  1200   0.869E-05 0.410E-06
 gam= 0.214 trial= 0.679  step= 0.759 mean= 0.679
 gam= 0.247 g(H,U,f)=  0.211E-05 0.343E-07 0.426E-18 ort(H,U,f) =-0.242E-06 0.249E-07 0.118E-17
CGA:  10    -0.591330241400E+03   -0.33204E-05   -0.33292E-05  1200   0.215E-05-0.217E-06
 gam= 0.247 trial= 0.683  step= 0.839 mean= 0.683
 final diagonalization
  13 F= -.59133024E+03 E0= -.59133024E+03  d E =-.695381E-01
 curvature:  -0.78 expect dE=-0.188E+00 dE for cont linesearch -0.331E-05
 trial: gam= 0.53379 g(F)=  0.242E+00 g(S)=  0.000E+00 ort = 0.303E-02 (trialstep = 0.220E+00)
 search vector abs. value=  0.862E+00
 bond charge predicted
 wavefunctions rotated
       N       E                     dE             d eps       ncg     rms          ort
 gam= 0.000 g(H,U,f)=  0.736E+00 0.159E-01 0.496E-12 ort(H,U,f) = 0.000E+00 0.000E+00 0.000E+00
SDA:   1    -0.591048465474E+03    0.28177E+00    0.00000E+00  1200   0.752E+00 0.000E+00
 gam= 0.000 trial= 0.691  step= 0.672 mean= 0.691
 gam= 0.307 g(H,U,f)=  0.214E+00 0.167E-01 0.234E-13 ort(H,U,f) = 0.154E-01-0.155E-01-0.201E-13
CGA:   2    -0.591301076977E+03   -0.25261E+00   -0.25261E+00  1200   0.231E+00-0.723E-04
 gam= 0.307 trial= 0.690  step= 0.543 mean= 0.690
 gam= 0.146 g(H,U,f)=  0.329E-01 0.769E-03 0.593E-16 ort(H,U,f) =-0.699E-03 0.703E-03 0.265E-14
CGA:   3    -0.591363713392E+03   -0.62636E-01   -0.62642E-01  1200   0.337E-01 0.407E-05
 gam= 0.146 trial= 0.683  step= 0.535 mean= 0.683
 gam= 0.219 g(H,U,f)=  0.690E-02 0.464E-03 0.219E-18 ort(H,U,f) =-0.572E-03 0.574E-03-0.331E-16
CGA:   4    -0.591372723398E+03   -0.90100E-02   -0.90101E-02  1200   0.737E-02 0.201E-05
 gam= 0.219 trial= 0.675  step= 0.590 mean= 0.675
 gam= 0.258 g(H,U,f)=  0.171E-02 0.193E-03 0.224E-14 ort(H,U,f) =-0.328E-03 0.334E-03 0.732E-15
CGA:   5    -0.591374898319E+03   -0.21749E-02   -0.21752E-02  1200   0.190E-02 0.607E-05
 gam= 0.258 trial= 0.671  step= 0.698 mean= 0.671
 gam= 0.329 g(H,U,f)=  0.591E-03 0.338E-04 0.540E-17 ort(H,U,f) =-0.920E-04 0.941E-04-0.142E-15
CGA:   6    -0.591375563225E+03   -0.66491E-03   -0.66488E-03  1200   0.625E-03 0.207E-05
 gam= 0.329 trial= 0.673  step= 0.720 mean= 0.673
 gam= 0.305 g(H,U,f)=  0.180E-03 0.106E-04 0.652E-16 ort(H,U,f) =-0.296E-04 0.293E-04-0.151E-15
CGA:   7    -0.591375788530E+03   -0.22530E-03   -0.22531E-03  1200   0.190E-03-0.300E-06
 gam= 0.305 trial= 0.675  step= 0.709 mean= 0.675
 gam= 0.235 g(H,U,f)=  0.441E-04 0.697E-06 0.971E-17 ort(H,U,f) =-0.122E-05 0.161E-05-0.733E-17
CGA:   8    -0.591375855977E+03   -0.67448E-04   -0.67441E-04  1200   0.448E-04 0.394E-06
 gam= 0.235 trial= 0.677  step= 0.693 mean= 0.677
 gam= 0.218 g(H,U,f)=  0.956E-05 0.186E-06 0.639E-17 ort(H,U,f) = 0.217E-06 0.159E-06-0.650E-17
CGA:   9    -0.591375871516E+03   -0.15539E-04   -0.15536E-04  1200   0.974E-05 0.376E-06
 gam= 0.218 trial= 0.677  step= 0.768 mean= 0.677
 gam= 0.258 g(H,U,f)=  0.246E-05 0.497E-07 0.841E-18 ort(H,U,f) =-0.256E-06-0.885E-08 0.178E-17
CGA:  10    -0.591375875276E+03   -0.37600E-05   -0.37712E-05  1200   0.251E-05-0.265E-06
 gam= 0.258 trial= 0.682  step= 0.861 mean= 0.682
 final diagonalization
  14 F= -.59137588E+03 E0= -.59137588E+03  d E =-.456339E-01
 trial-energy change:   -0.045634  1 .order   -0.045630   -0.053464   -0.037796
 step:   0.7502(harm=  0.7502)  dis= 0.04476  next Energy=  -591.421462 (dE=-0.912E-01)
 bond charge predicted
 wavefunctions rotated
       N       E                     dE             d eps       ncg     rms          ort
 gam= 0.000 g(H,U,f)=  0.429E+01 0.939E-01 0.830E-12 ort(H,U,f) = 0.000E+00 0.000E+00 0.000E+00
SDA:   1    -0.589515498612E+03    0.18604E+01    0.00000E+00  1200   0.438E+01 0.000E+00
 gam= 0.000 trial= 0.691  step= 0.671 mean= 0.691
 gam= 0.307 g(H,U,f)=  0.125E+01 0.963E-01 0.151E-17 ort(H,U,f) = 0.882E-01-0.896E-01-0.114E-17
CGA:   2    -0.590985268458E+03   -0.14698E+01   -0.14697E+01  1200   0.135E+01-0.142E-02
 gam= 0.307 trial= 0.690  step= 0.542 mean= 0.690
 gam= 0.146 g(H,U,f)=  0.192E+00 0.448E-02 0.606E-15 ort(H,U,f) =-0.354E-02 0.402E-02-0.751E-16
CGA:   3    -0.591349901681E+03   -0.36463E+00   -0.36477E+00  1200   0.196E+00 0.476E-03
 gam= 0.146 trial= 0.683  step= 0.535 mean= 0.683
 gam= 0.217 g(H,U,f)=  0.401E-01 0.262E-02 0.139E-15 ort(H,U,f) =-0.325E-02 0.326E-02-0.133E-14
CGA:   4    -0.591402503412E+03   -0.52602E-01   -0.52601E-01  1200   0.427E-01 0.227E-05
 gam= 0.217 trial= 0.675  step= 0.590 mean= 0.675
 gam= 0.258 g(H,U,f)=  0.989E-02 0.111E-02 0.472E-14 ort(H,U,f) =-0.189E-02 0.191E-02 0.914E-15
CGA:   5    -0.591415107287E+03   -0.12604E-01   -0.12604E-01  1200   0.110E-01 0.129E-04
 gam= 0.258 trial= 0.671  step= 0.697 mean= 0.671
 gam= 0.327 g(H,U,f)=  0.340E-02 0.198E-03 0.104E-15 ort(H,U,f) =-0.540E-03 0.549E-03-0.102E-14
CGA:   6    -0.591418942808E+03   -0.38355E-02   -0.38354E-02  1200   0.360E-02 0.915E-05
 gam= 0.327 trial= 0.672  step= 0.721 mean= 0.672
 gam= 0.305 g(H,U,f)=  0.103E-02 0.621E-04 0.362E-15 ort(H,U,f) =-0.169E-03 0.170E-03-0.450E-15
CGA:   7    -0.591420242544E+03   -0.12997E-02   -0.12997E-02  1200   0.110E-02 0.118E-05
 gam= 0.305 trial= 0.675  step= 0.713 mean= 0.675
 gam= 0.237 g(H,U,f)=  0.255E-03 0.422E-05 0.196E-16 ort(H,U,f) =-0.908E-05 0.102E-04-0.508E-16
CGA:   8    -0.591420633592E+03   -0.39105E-03   -0.39103E-03  1200   0.260E-03 0.115E-05
 gam= 0.237 trial= 0.677  step= 0.698 mean= 0.677
 gam= 0.220 g(H,U,f)=  0.559E-04 0.110E-05 0.279E-16 ort(H,U,f) =-0.198E-06 0.999E-06-0.927E-17
CGA:   9    -0.591420724301E+03   -0.90710E-04   -0.90701E-04  1200   0.570E-04 0.801E-06
 gam= 0.220 trial= 0.678  step= 0.756 mean= 0.678
 gam= 0.249 g(H,U,f)=  0.139E-04 0.292E-06 0.384E-17 ort(H,U,f) =-0.710E-06-0.378E-07 0.951E-17
CGA:  10    -0.591420745894E+03   -0.21593E-04   -0.21623E-04  1200   0.142E-04-0.748E-06
 gam= 0.249 trial= 0.682  step= 0.824 mean= 0.682
 gam= 0.286 g(H,U,f)=  0.394E-05 0.124E-06 0.110E-18 ort(H,U,f) =-0.539E-06 0.564E-09-0.105E-17
CGA:  11    -0.591420751632E+03   -0.57379E-05   -0.57765E-05  1200   0.407E-05-0.538E-06
 gam= 0.286 trial= 0.689  step= 0.800 mean= 0.689
 gam= 0.274 g(H,U,f)=  0.107E-05 0.463E-07 0.149E-18 ort(H,U,f) =-0.148E-06 0.124E-07 0.219E-18
CGA:  12    -0.591420753188E+03   -0.15563E-05   -0.15635E-05  1200   0.111E-05-0.135E-06
 gam= 0.274 trial= 0.694  step= 0.755 mean= 0.694
 final diagonalization
  15 F= -.59142075E+03 E0= -.59142075E+03  d E =-.905118E-01
 curvature:  -1.33 expect dE=-0.541E+00 dE for cont linesearch -0.172E-04
 trial: gam= 1.74273 g(F)=  0.407E+00 g(S)=  0.000E+00 ort =-0.334E-02 (trialstep = 0.932E-01)
 search vector abs. value=  0.301E+01
 bond charge predicted
 wavefunctions rotated
       N       E                     dE             d eps       ncg     rms          ort
 gam= 0.000 g(H,U,f)=  0.380E+00 0.115E-01 0.161E-12 ort(H,U,f) = 0.000E+00 0.000E+00 0.000E+00
SDA:   1    -0.591290479956E+03    0.13027E+00    0.00000E+00  1200   0.391E+00 0.000E+00
 gam= 0.000 trial= 0.697  step= 0.645 mean= 0.697
 gam= 0.312 g(H,U,f)=  0.112E+00 0.952E-02 0.864E-14 ort(H,U,f) = 0.101E-01-0.101E-01-0.880E-14
CGA:   2    -0.591416615656E+03   -0.12614E+00   -0.12614E+00  1200   0.122E+00-0.120E-04
 gam= 0.312 trial= 0.695  step= 0.541 mean= 0.695
 gam= 0.146 g(H,U,f)=  0.175E-01 0.313E-03 0.200E-15 ort(H,U,f) =-0.263E-03 0.261E-03 0.221E-14
CGA:   3    -0.591449590393E+03   -0.32975E-01   -0.32976E-01  1200   0.178E-01-0.199E-05
 gam= 0.146 trial= 0.687  step= 0.527 mean= 0.687
 gam= 0.215 g(H,U,f)=  0.365E-02 0.188E-03 0.325E-16 ort(H,U,f) =-0.191E-03 0.195E-03-0.252E-15
CGA:   4    -0.591454294654E+03   -0.47043E-02   -0.47045E-02  1200   0.384E-02 0.323E-05
 gam= 0.215 trial= 0.679  step= 0.586 mean= 0.679
 gam= 0.241 g(H,U,f)=  0.835E-03 0.905E-04 0.444E-15 ort(H,U,f) =-0.131E-03 0.135E-03 0.809E-16
CGA:   5    -0.591455419418E+03   -0.11248E-02   -0.11250E-02  1200   0.926E-03 0.432E-05
 gam= 0.241 trial= 0.674  step= 0.696 mean= 0.674
 gam= 0.318 g(H,U,f)=  0.280E-03 0.147E-04 0.271E-17 ort(H,U,f) =-0.411E-04 0.417E-04 0.409E-16
CGA:   6    -0.591455741964E+03   -0.32255E-03   -0.32254E-03  1200   0.295E-03 0.592E-06
 gam= 0.318 trial= 0.675  step= 0.722 mean= 0.675
 gam= 0.308 g(H,U,f)=  0.847E-04 0.603E-05 0.134E-16 ort(H,U,f) =-0.134E-04 0.135E-04-0.365E-16
CGA:   7    -0.591455848512E+03   -0.10655E-03   -0.10655E-03  1200   0.907E-04 0.584E-07
 gam= 0.308 trial= 0.678  step= 0.718 mean= 0.678
 gam= 0.240 g(H,U,f)=  0.214E-04 0.373E-06 0.171E-17 ort(H,U,f) =-0.753E-06 0.119E-05-0.765E-18
CGA:   8    -0.591455881062E+03   -0.32551E-04   -0.32543E-04  1200   0.218E-04 0.436E-06
 gam= 0.240 trial= 0.680  step= 0.701 mean= 0.680
 gam= 0.220 g(H,U,f)=  0.470E-05 0.830E-07 0.646E-18 ort(H,U,f) = 0.166E-06 0.121E-06-0.936E-18
CGA:   9    -0.591455888737E+03   -0.76750E-05   -0.76712E-05  1200   0.478E-05 0.287E-06
 gam= 0.220 trial= 0.681  step= 0.776 mean= 0.681
 gam= 0.260 g(H,U,f)=  0.122E-05 0.261E-07 0.289E-18 ort(H,U,f) =-0.163E-06 0.514E-09 0.291E-18
CGA:  10    -0.591455890609E+03   -0.18717E-05   -0.18793E-05  1200   0.124E-05-0.163E-06
 gam= 0.260 trial= 0.686  step= 0.855 mean= 0.686
 final diagonalization
  16 F= -.59145589E+03 E0= -.59145589E+03  d E =-.351374E-01
 ZBRENT: can't locate minimum, use default step
 trial-energy change:   -0.035137  1 .order   -0.035142   -0.037404   -0.032880
 step:   0.3729(harm=  0.7707)  dis= 0.04396  next Energy=  -591.575365 (dE=-0.155E+00)
 bond charge predicted
 wavefunctions rotated
       N       E                     dE             d eps       ncg     rms          ort
 gam= 0.000 g(H,U,f)=  0.342E+01 0.104E+00 0.721E-12 ort(H,U,f) = 0.000E+00 0.000E+00 0.000E+00
SDA:   1    -0.590045842653E+03    0.14100E+01    0.00000E+00  1200   0.352E+01 0.000E+00
 gam= 0.000 trial= 0.694  step= 0.645 mean= 0.694
 gam= 0.312 g(H,U,f)=  0.101E+01 0.859E-01 0.374E-12 ort(H,U,f) = 0.907E-01-0.911E-01-0.381E-12
CGA:   2    -0.591180489206E+03   -0.11346E+01   -0.11346E+01  1200   0.110E+01-0.364E-03
 gam= 0.312 trial= 0.692  step= 0.540 mean= 0.692
 gam= 0.146 g(H,U,f)=  0.158E+00 0.284E-02 0.309E-17 ort(H,U,f) =-0.220E-02 0.242E-02 0.328E-16
CGA:   3    -0.591477334198E+03   -0.29684E+00   -0.29692E+00  1200   0.161E+00 0.218E-03
 gam= 0.146 trial= 0.684  step= 0.529 mean= 0.684
 gam= 0.214 g(H,U,f)=  0.328E-01 0.169E-02 0.137E-15 ort(H,U,f) =-0.176E-02 0.176E-02-0.849E-16
CGA:   4    -0.591519814196E+03   -0.42480E-01   -0.42480E-01  1200   0.344E-01 0.476E-05
 gam= 0.214 trial= 0.676  step= 0.588 mean= 0.676
 gam= 0.241 g(H,U,f)=  0.748E-02 0.815E-03 0.310E-15 ort(H,U,f) =-0.121E-02 0.122E-02-0.101E-15
CGA:   5    -0.591529934178E+03   -0.10120E-01   -0.10120E-01  1200   0.830E-02 0.105E-04
 gam= 0.241 trial= 0.672  step= 0.698 mean= 0.672
 gam= 0.318 g(H,U,f)=  0.250E-02 0.134E-03 0.277E-16 ort(H,U,f) =-0.374E-03 0.378E-03 0.678E-17
CGA:   6    -0.591532829012E+03   -0.28948E-02   -0.28948E-02  1200   0.264E-02 0.371E-05
 gam= 0.318 trial= 0.673  step= 0.724 mean= 0.673
 gam= 0.307 g(H,U,f)=  0.755E-03 0.538E-04 0.256E-16 ort(H,U,f) =-0.120E-03 0.122E-03-0.315E-16
CGA:   7    -0.591533783674E+03   -0.95466E-03   -0.95463E-03  1200   0.809E-03 0.140E-05
 gam= 0.307 trial= 0.676  step= 0.721 mean= 0.676
 gam= 0.241 g(H,U,f)=  0.191E-03 0.346E-05 0.288E-17 ort(H,U,f) =-0.892E-05 0.106E-04-0.575E-17
CGA:   8    -0.591534075222E+03   -0.29155E-03   -0.29151E-03  1200   0.195E-03 0.165E-05
 gam= 0.241 trial= 0.678  step= 0.708 mean= 0.678
 gam= 0.221 g(H,U,f)=  0.423E-04 0.762E-06 0.180E-17 ort(H,U,f) =-0.316E-06 0.108E-05-0.896E-18
CGA:   9    -0.591534144353E+03   -0.69131E-04   -0.69119E-04  1200   0.431E-04 0.762E-06
 gam= 0.221 trial= 0.679  step= 0.756 mean= 0.679
 gam= 0.246 g(H,U,f)=  0.104E-04 0.236E-06 0.289E-18 ort(H,U,f) =-0.469E-06 0.479E-08 0.435E-18
CGA:  10    -0.591534160689E+03   -0.16336E-04   -0.16354E-04  1200   0.106E-04-0.464E-06
 gam= 0.246 trial= 0.683  step= 0.826 mean= 0.683
 gam= 0.284 g(H,U,f)=  0.291E-05 0.902E-07 0.595E-19 ort(H,U,f) =-0.218E-06-0.345E-07-0.164E-18
CGA:  11    -0.591534164998E+03   -0.43083E-05   -0.43262E-05  1200   0.300E-05-0.252E-06
 gam= 0.284 trial= 0.690  step= 0.779 mean= 0.690
 final diagonalization
  17 F= -.59153416E+03 E0= -.59153416E+03  d E =-.113412E+00
 curvature:  -1.90 expect dE=-0.435E+00 dE for cont linesearch -0.270E-01
 ZBRENT: increasing intervall
 opt :   0.9323  next Energy=  -591.568428 (dE=-0.148E+00)
 bond charge predicted
 wavefunctions rotated
       N       E                     dE             d eps       ncg     rms          ort
 gam= 0.000 g(H,U,f)=  0.136E+02 0.423E+00 0.241E-15 ort(H,U,f) = 0.000E+00 0.000E+00 0.000E+00
SDA:   1    -0.585626172583E+03    0.59080E+01    0.00000E+00  1200   0.141E+02 0.000E+00
 gam= 0.000 trial= 0.695  step= 0.643 mean= 0.695
 gam= 0.314 g(H,U,f)=  0.407E+01 0.347E+00 0.338E-26 ort(H,U,f) = 0.360E+00-0.364E+00 0.243E-27
CGA:   2    -0.590151643074E+03   -0.45255E+01   -0.45253E+01  1200   0.442E+01-0.357E-02
 gam= 0.314 trial= 0.692  step= 0.538 mean= 0.692
 gam= 0.146 g(H,U,f)=  0.635E+00 0.120E-01 0.674E-22 ort(H,U,f) =-0.769E-02 0.114E-01 0.543E-19
CGA:   3    -0.591338978838E+03   -0.11873E+01   -0.11883E+01  1200   0.647E+00 0.371E-02
 gam= 0.146 trial= 0.685  step= 0.530 mean= 0.685
 gam= 0.214 g(H,U,f)=  0.131E+00 0.699E-02 0.218E-14 ort(H,U,f) =-0.754E-02 0.755E-02-0.390E-14
CGA:   4    -0.591510615321E+03   -0.17164E+00   -0.17162E+00  1200   0.138E+00 0.107E-04
 gam= 0.214 trial= 0.677  step= 0.588 mean= 0.677
 gam= 0.242 g(H,U,f)=  0.301E-01 0.339E-02 0.199E-19 ort(H,U,f) =-0.508E-02 0.511E-02-0.144E-19
CGA:   5    -0.591551322057E+03   -0.40707E-01   -0.40708E-01  1200   0.335E-01 0.219E-04
 gam= 0.242 trial= 0.672  step= 0.696 mean= 0.672
 gam= 0.319 g(H,U,f)=  0.101E-01 0.589E-03 0.174E-19 ort(H,U,f) =-0.164E-02 0.165E-02-0.183E-19
CGA:   6    -0.591562990131E+03   -0.11668E-01   -0.11668E-01  1200   0.107E-01 0.172E-04
 gam= 0.319 trial= 0.674  step= 0.723 mean= 0.674
 gam= 0.308 g(H,U,f)=  0.307E-02 0.224E-03 0.319E-19 ort(H,U,f) =-0.515E-03 0.521E-03 0.898E-20
CGA:   7    -0.591566862281E+03   -0.38721E-02   -0.38720E-02  1200   0.329E-02 0.578E-05
 gam= 0.308 trial= 0.676  step= 0.722 mean= 0.676
 gam= 0.241 g(H,U,f)=  0.778E-03 0.162E-04 0.576E-21 ort(H,U,f) =-0.485E-04 0.527E-04 0.366E-20
CGA:   8    -0.591568052258E+03   -0.11900E-02   -0.11899E-02  1200   0.794E-03 0.420E-05
 gam= 0.241 trial= 0.678  step= 0.713 mean= 0.678
 gam= 0.222 g(H,U,f)=  0.173E-03 0.319E-05 0.255E-20 ort(H,U,f) =-0.409E-05 0.528E-05 0.334E-20
CGA:   9    -0.591568335483E+03   -0.28322E-03   -0.28320E-03  1200   0.176E-03 0.119E-05
 gam= 0.222 trial= 0.680  step= 0.749 mean= 0.680
 gam= 0.241 g(H,U,f)=  0.415E-04 0.103E-05 0.104E-20 ort(H,U,f) =-0.109E-05 0.277E-06 0.167E-20
CGA:  10    -0.591568401642E+03   -0.66159E-04   -0.66187E-04  1200   0.425E-04-0.815E-06
 gam= 0.241 trial= 0.684  step= 0.819 mean= 0.684
 gam= 0.280 g(H,U,f)=  0.116E-04 0.359E-06 0.156E-22 ort(H,U,f) =-0.314E-06-0.859E-07 0.127E-21
CGA:  11    -0.591568418943E+03   -0.17301E-04   -0.17328E-04  1200   0.119E-04-0.400E-06
 gam= 0.280 trial= 0.690  step= 0.788 mean= 0.690
 gam= 0.275 g(H,U,f)=  0.314E-05 0.138E-06 0.679E-22 ort(H,U,f) =-0.976E-07 0.477E-07 0.751E-22
CGA:  12    -0.591568423593E+03   -0.46500E-05   -0.46523E-05  1200   0.327E-05-0.499E-07
 gam= 0.275 trial= 0.695  step= 0.784 mean= 0.695
 final diagonalization
  18 F= -.59156842E+03 E0= -.59156842E+03  d E =-.147670E+00
 curvature:  -2.41 expect dE=-0.168E+01 dE for cont linesearch -0.576E-02
 ZBRENT: bracketing found
 ZBRENT: interpolating
 opt :   0.7697  next Energy=  -591.575322 (dE=-0.155E+00)
 bond charge predicted
 wavefunctions rotated
       N       E                     dE             d eps       ncg     rms          ort
 gam= 0.000 g(H,U,f)=  0.115E+01 0.343E-01 0.229E-16 ort(H,U,f) = 0.000E+00 0.000E+00 0.000E+00
SDA:   1    -0.591073391192E+03    0.49503E+00    0.00000E+00  1200   0.119E+01 0.000E+00
 gam= 0.000 trial= 0.700  step= 0.646 mean= 0.700
 gam= 0.312 g(H,U,f)=  0.341E+00 0.292E-01 0.174E-12 ort(H,U,f) = 0.309E-01-0.307E-01-0.176E-12
CGA:   2    -0.591456108342E+03   -0.38272E+00   -0.38272E+00  1200   0.370E+00 0.124E-03
 gam= 0.312 trial= 0.697  step= 0.541 mean= 0.697
 gam= 0.146 g(H,U,f)=  0.531E-01 0.959E-03 0.380E-18 ort(H,U,f) =-0.882E-03 0.909E-03 0.298E-17
CGA:   3    -0.591556197276E+03   -0.10009E+00   -0.10009E+00  1200   0.541E-01 0.267E-04
 gam= 0.146 trial= 0.689  step= 0.527 mean= 0.689
 gam= 0.216 g(H,U,f)=  0.111E-01 0.599E-03 0.824E-20 ort(H,U,f) =-0.628E-03 0.626E-03-0.817E-19
CGA:   4    -0.591570456131E+03   -0.14259E-01   -0.14258E-01  1200   0.117E-01-0.190E-05
 gam= 0.216 trial= 0.681  step= 0.587 mean= 0.681
 gam= 0.241 g(H,U,f)=  0.253E-02 0.278E-03 0.386E-18 ort(H,U,f) =-0.431E-03 0.425E-03 0.503E-19
CGA:   5    -0.591573881233E+03   -0.34251E-02   -0.34248E-02  1200   0.281E-02-0.613E-05
 gam= 0.241 trial= 0.676  step= 0.696 mean= 0.676
 gam= 0.316 g(H,U,f)=  0.843E-03 0.454E-04 0.606E-20 ort(H,U,f) =-0.129E-03 0.130E-03 0.344E-19
CGA:   6    -0.591574858399E+03   -0.97717E-03   -0.97716E-03  1200   0.888E-03 0.876E-06
 gam= 0.316 trial= 0.677  step= 0.722 mean= 0.677
 gam= 0.308 g(H,U,f)=  0.255E-03 0.186E-04 0.110E-20 ort(H,U,f) =-0.416E-04 0.423E-04-0.583E-20
CGA:   7    -0.591575179060E+03   -0.32066E-03   -0.32065E-03  1200   0.274E-03 0.721E-06
 gam= 0.308 trial= 0.680  step= 0.720 mean= 0.680
 gam= 0.243 g(H,U,f)=  0.654E-04 0.124E-05 0.303E-20 ort(H,U,f) =-0.428E-05 0.362E-05-0.136E-21
CGA:   8    -0.591575277771E+03   -0.98711E-04   -0.98724E-04  1200   0.666E-04-0.655E-06
 gam= 0.243 trial= 0.682  step= 0.713 mean= 0.682
 gam= 0.222 g(H,U,f)=  0.146E-04 0.258E-06 0.121E-22 ort(H,U,f) =-0.770E-06 0.358E-06 0.650E-22
CGA:   9    -0.591575301456E+03   -0.23686E-04   -0.23692E-04  1200   0.148E-04-0.412E-06
 gam= 0.222 trial= 0.683  step= 0.734 mean= 0.683
 gam= 0.232 g(H,U,f)=  0.335E-05 0.823E-07 0.118E-22 ort(H,U,f) = 0.206E-06 0.404E-09-0.186E-22
CGA:  10    -0.591575306864E+03   -0.54081E-05   -0.54029E-05  1200   0.343E-05 0.206E-06
 gam= 0.232 trial= 0.686  step= 0.783 mean= 0.686
 gam= 0.269 g(H,U,f)=  0.895E-06 0.297E-07 0.106E-21 ort(H,U,f) = 0.157E-06-0.714E-08-0.103E-21
CGA:  11    -0.591575308234E+03   -0.13694E-05   -0.13622E-05  1200   0.925E-06 0.150E-06
 gam= 0.269 trial= 0.691  step= 0.788 mean= 0.691
 final diagonalization
  19 F= -.59157531E+03 E0= -.59157531E+03  d E =-.154555E+00
 curvature:  -2.89 expect dE=-0.137E+01 dE for cont linesearch -0.477E-07
 trial: gam= 1.12367 g(F)=  0.473E+00 g(S)=  0.000E+00 ort = 0.223E-03 (trialstep = 0.161E+00)
 search vector abs. value=  0.428E+01
 bond charge predicted
 wavefunctions rotated
       N       E                     dE             d eps       ncg     rms          ort
 gam= 0.000 g(H,U,f)=  0.185E+01 0.240E-01 0.236E-16 ort(H,U,f) = 0.000E+00 0.000E+00 0.000E+00
SDA:   1    -0.590810508050E+03    0.76480E+00    0.00000E+00  1200   0.187E+01 0.000E+00
 gam= 0.000 trial= 0.695  step= 0.691 mean= 0.695
 gam= 0.292 g(H,U,f)=  0.515E+00 0.326E-01 0.191E-13 ort(H,U,f) = 0.264E-01-0.262E-01-0.147E-13
CGA:   2    -0.591457029727E+03   -0.64652E+00   -0.64652E+00  1200   0.548E+00 0.188E-03
 gam= 0.292 trial= 0.695  step= 0.537 mean= 0.695
 gam= 0.139 g(H,U,f)=  0.738E-01 0.222E-02 0.345E-20 ort(H,U,f) =-0.210E-02 0.212E-02 0.216E-18
CGA:   3    -0.591604021556E+03   -0.14699E+00   -0.14701E+00  1200   0.760E-01 0.224E-04
 gam= 0.139 trial= 0.687  step= 0.536 mean= 0.687
 gam= 0.228 g(H,U,f)=  0.165E-01 0.766E-03 0.717E-20 ort(H,U,f) =-0.128E-02 0.128E-02 0.599E-19
CGA:   4    -0.591624408608E+03   -0.20387E-01   -0.20386E-01  1200   0.173E-01 0.292E-07
 gam= 0.228 trial= 0.680  step= 0.569 mean= 0.680
 gam= 0.255 g(H,U,f)=  0.395E-02 0.465E-03 0.389E-18 ort(H,U,f) =-0.717E-03 0.723E-03 0.164E-18
CGA:   5    -0.591629334606E+03   -0.49260E-02   -0.49263E-02  1200   0.442E-02 0.551E-05
 gam= 0.255 trial= 0.674  step= 0.692 mean= 0.674
 gam= 0.309 g(H,U,f)=  0.128E-02 0.805E-04 0.274E-21 ort(H,U,f) =-0.224E-03 0.224E-03-0.114E-19
CGA:   6    -0.591630864425E+03   -0.15298E-02   -0.15298E-02  1200   0.136E-02 0.378E-06
 gam= 0.309 trial= 0.675  step= 0.741 mean= 0.675
 gam= 0.317 g(H,U,f)=  0.415E-03 0.181E-04 0.337E-20 ort(H,U,f) =-0.555E-04 0.555E-04-0.133E-19
CGA:   7    -0.591631370218E+03   -0.50579E-03   -0.50580E-03  1200   0.433E-03-0.103E-07
 gam= 0.317 trial= 0.678  step= 0.700 mean= 0.678
 gam= 0.241 g(H,U,f)=  0.102E-03 0.252E-05 0.378E-20 ort(H,U,f) =-0.589E-05 0.742E-05 0.644E-21
CGA:   8    -0.591631521544E+03   -0.15133E-03   -0.15131E-03  1200   0.104E-03 0.154E-05
 gam= 0.241 trial= 0.680  step= 0.690 mean= 0.680
 gam= 0.225 g(H,U,f)=  0.228E-04 0.665E-06 0.102E-20 ort(H,U,f) = 0.580E-06-0.166E-06-0.148E-20
CGA:   9    -0.591631557622E+03   -0.36077E-04   -0.36075E-04  1200   0.235E-04 0.414E-06
 gam= 0.225 trial= 0.680  step= 0.731 mean= 0.680
 gam= 0.243 g(H,U,f)=  0.560E-05 0.116E-06 0.345E-22 ort(H,U,f) =-0.281E-06 0.744E-08 0.839E-22
CGA:  10    -0.591631566234E+03   -0.86120E-05   -0.86195E-05  1200   0.571E-05-0.273E-06
 gam= 0.243 trial= 0.683  step= 0.795 mean= 0.683
 gam= 0.260 g(H,U,f)=  0.146E-05 0.297E-07 0.300E-22 ort(H,U,f) =-0.101E-06 0.208E-08-0.641E-22
CGA:  11    -0.591631568472E+03   -0.22386E-05   -0.22439E-05  1200   0.149E-05-0.992E-07
 gam= 0.260 trial= 0.688  step= 0.774 mean= 0.688
 final diagonalization
  20 F= -.59163157E+03 E0= -.59163157E+03  d E =-.562602E-01
 trial-energy change:   -0.056260  1 .order   -0.056146   -0.076188   -0.036105
 step:   0.3059(harm=  0.3059)  dis= 0.03569  next Energy=  -591.647715 (dE=-0.724E-01)
 bond charge predicted
 wavefunctions rotated
       N       E                     dE             d eps       ncg     rms          ort
 gam= 0.000 g(H,U,f)=  0.150E+01 0.194E-01 0.559E-16 ort(H,U,f) = 0.000E+00 0.000E+00 0.000E+00
SDA:   1    -0.590981641609E+03    0.64992E+00    0.00000E+00  1200   0.152E+01 0.000E+00
 gam= 0.000 trial= 0.692  step= 0.691 mean= 0.692
 gam= 0.293 g(H,U,f)=  0.418E+00 0.265E-01 0.182E-13 ort(H,U,f) = 0.215E-01-0.213E-01-0.140E-13
CGA:   2    -0.591505743393E+03   -0.52410E+00   -0.52410E+00  1200   0.445E+00 0.136E-03
 gam= 0.293 trial= 0.692  step= 0.537 mean= 0.692
 gam= 0.139 g(H,U,f)=  0.599E-01 0.181E-02 0.746E-20 ort(H,U,f) =-0.173E-02 0.174E-02 0.660E-18
CGA:   3    -0.591625112192E+03   -0.11937E+00   -0.11938E+00  1200   0.617E-01 0.121E-04
 gam= 0.139 trial= 0.685  step= 0.537 mean= 0.685
 gam= 0.228 g(H,U,f)=  0.135E-01 0.622E-03 0.989E-20 ort(H,U,f) =-0.105E-02 0.105E-02 0.129E-18
CGA:   4    -0.591641670899E+03   -0.16559E-01   -0.16558E-01  1200   0.141E-01 0.502E-06
 gam= 0.228 trial= 0.677  step= 0.569 mean= 0.677
 gam= 0.256 g(H,U,f)=  0.322E-02 0.378E-03 0.966E-18 ort(H,U,f) =-0.584E-03 0.588E-03 0.430E-18
CGA:   5    -0.591645676849E+03   -0.40060E-02   -0.40062E-02  1200   0.360E-02 0.461E-05
 gam= 0.256 trial= 0.672  step= 0.692 mean= 0.672
 gam= 0.309 g(H,U,f)=  0.105E-02 0.652E-04 0.353E-20 ort(H,U,f) =-0.182E-03 0.182E-03-0.724E-19
CGA:   6    -0.591646922549E+03   -0.12457E-02   -0.12457E-02  1200   0.111E-02-0.618E-07
 gam= 0.309 trial= 0.673  step= 0.741 mean= 0.673
 gam= 0.317 g(H,U,f)=  0.339E-03 0.147E-04 0.171E-19 ort(H,U,f) =-0.448E-04 0.448E-04-0.430E-19
CGA:   7    -0.591647334995E+03   -0.41245E-03   -0.41245E-03  1200   0.353E-03-0.120E-07
 gam= 0.317 trial= 0.676  step= 0.698 mean= 0.676
 gam= 0.241 g(H,U,f)=  0.830E-04 0.204E-05 0.544E-20 ort(H,U,f) =-0.462E-05 0.598E-05-0.203E-20
CGA:   8    -0.591647458330E+03   -0.12334E-03   -0.12332E-03  1200   0.851E-04 0.137E-05
 gam= 0.241 trial= 0.677  step= 0.689 mean= 0.677
 gam= 0.225 g(H,U,f)=  0.186E-04 0.539E-06 0.399E-20 ort(H,U,f) = 0.470E-06-0.134E-06-0.438E-20
CGA:   9    -0.591647487757E+03   -0.29427E-04   -0.29424E-04  1200   0.192E-04 0.336E-06
 gam= 0.225 trial= 0.678  step= 0.732 mean= 0.678
 gam= 0.243 g(H,U,f)=  0.457E-05 0.932E-07 0.270E-21 ort(H,U,f) =-0.250E-06 0.808E-08 0.790E-21
CGA:  10    -0.591647494793E+03   -0.70368E-05   -0.70433E-05  1200   0.467E-05-0.242E-06
 gam= 0.243 trial= 0.681  step= 0.795 mean= 0.681
 gam= 0.260 g(H,U,f)=  0.119E-05 0.244E-07 0.730E-23 ort(H,U,f) =-0.855E-07 0.186E-08-0.429E-22
CGA:  11    -0.591647496621E+03   -0.18276E-05   -0.18325E-05  1200   0.122E-05-0.836E-07
 gam= 0.260 trial= 0.686  step= 0.771 mean= 0.686
 final diagonalization
  21 F= -.59164750E+03 E0= -.59164750E+03  d E =-.721884E-01
 curvature:  -1.38 expect dE=-0.354E+00 dE for cont linesearch -0.120E-04
 trial: gam= 0.54885 g(F)=  0.256E+00 g(S)=  0.000E+00 ort =-0.609E-02 (trialstep = 0.190E+00)
 search vector abs. value=  0.154E+01
 bond charge predicted
 wavefunctions rotated
       N       E                     dE             d eps       ncg     rms          ort
 gam= 0.000 g(H,U,f)=  0.710E+00 0.206E-01 0.668E-16 ort(H,U,f) = 0.000E+00 0.000E+00 0.000E+00
SDA:   1    -0.591385547964E+03    0.26195E+00    0.00000E+00  1200   0.730E+00 0.000E+00
 gam= 0.000 trial= 0.691  step= 0.629 mean= 0.691
 gam= 0.304 g(H,U,f)=  0.207E+00 0.144E-01 0.405E-13 ort(H,U,f) = 0.163E-01-0.164E-01-0.447E-13
CGA:   2    -0.591615314134E+03   -0.22977E+00   -0.22976E+00  1200   0.222E+00-0.684E-04
 gam= 0.304 trial= 0.687  step= 0.550 mean= 0.687
 gam= 0.149 g(H,U,f)=  0.323E-01 0.756E-03 0.951E-19 ort(H,U,f) =-0.476E-03 0.482E-03 0.126E-17
CGA:   3    -0.591676320878E+03   -0.61007E-01   -0.61011E-01  1200   0.330E-01 0.693E-05
 gam= 0.149 trial= 0.681  step= 0.525 mean= 0.681
 gam= 0.215 g(H,U,f)=  0.679E-02 0.315E-03 0.301E-19 ort(H,U,f) =-0.405E-03 0.403E-03-0.183E-18
CGA:   4    -0.591684988174E+03   -0.86673E-02   -0.86667E-02  1200   0.710E-02-0.177E-05
 gam= 0.215 trial= 0.673  step= 0.575 mean= 0.673
 gam= 0.238 g(H,U,f)=  0.152E-02 0.168E-03 0.349E-18 ort(H,U,f) =-0.249E-03 0.253E-03 0.362E-19
CGA:   5    -0.591687027795E+03   -0.20396E-02   -0.20398E-02  1200   0.169E-02 0.386E-05
 gam= 0.238 trial= 0.668  step= 0.689 mean= 0.668
 gam= 0.312 g(H,U,f)=  0.494E-03 0.331E-04 0.261E-20 ort(H,U,f) =-0.863E-04 0.886E-04 0.346E-19
CGA:   6    -0.591687609055E+03   -0.58126E-03   -0.58124E-03  1200   0.527E-03 0.232E-05
 gam= 0.312 trial= 0.669  step= 0.731 mean= 0.669
 gam= 0.317 g(H,U,f)=  0.156E-03 0.111E-04 0.125E-19 ort(H,U,f) =-0.267E-04 0.266E-04-0.312E-19
CGA:   7    -0.591687802090E+03   -0.19304E-03   -0.19304E-03  1200   0.167E-03-0.105E-06
 gam= 0.317 trial= 0.672  step= 0.717 mean= 0.672
 gam= 0.250 g(H,U,f)=  0.410E-04 0.795E-06 0.169E-20 ort(H,U,f) =-0.312E-05 0.316E-05-0.989E-21
CGA:   8    -0.591687861907E+03   -0.59817E-04   -0.59817E-04  1200   0.418E-04 0.363E-07
 gam= 0.250 trial= 0.674  step= 0.704 mean= 0.674
 gam= 0.221 g(H,U,f)=  0.910E-05 0.149E-06 0.645E-21 ort(H,U,f) = 0.546E-07 0.201E-06-0.923E-21
CGA:   9    -0.591687876615E+03   -0.14708E-04   -0.14704E-04  1200   0.924E-05 0.256E-06
 gam= 0.221 trial= 0.676  step= 0.759 mean= 0.676
 gam= 0.246 g(H,U,f)=  0.223E-05 0.468E-07 0.329E-21 ort(H,U,f) =-0.970E-07 0.366E-08 0.324E-21
CGA:  10    -0.591687880141E+03   -0.35263E-05   -0.35301E-05  1200   0.228E-05-0.933E-07
 gam= 0.246 trial= 0.680  step= 0.860 mean= 0.680
 final diagonalization
  22 F= -.59168788E+03 E0= -.59168788E+03  d E =-.403835E-01
 trial-energy change:   -0.040384  1 .order   -0.040404   -0.047999   -0.032808
 step:   0.6001(harm=  0.6001)  dis= 0.04011  next Energy=  -591.723327 (dE=-0.758E-01)
 bond charge predicted
 wavefunctions rotated
       N       E                     dE             d eps       ncg     rms          ort
 gam= 0.000 g(H,U,f)=  0.331E+01 0.956E-01 0.845E-16 ort(H,U,f) = 0.000E+00 0.000E+00 0.000E+00
SDA:   1    -0.590315864492E+03    0.13720E+01    0.00000E+00  1200   0.340E+01 0.000E+00
 gam= 0.000 trial= 0.689  step= 0.628 mean= 0.689
 gam= 0.304 g(H,U,f)=  0.969E+00 0.668E-01 0.195E-14 ort(H,U,f) = 0.747E-01-0.757E-01-0.218E-14
CGA:   2    -0.591385120008E+03   -0.10693E+01   -0.10692E+01  1200   0.104E+01-0.100E-02
 gam= 0.304 trial= 0.686  step= 0.550 mean= 0.686
 gam= 0.149 g(H,U,f)=  0.150E+00 0.368E-02 0.378E-15 ort(H,U,f) =-0.212E-02 0.239E-02 0.413E-14
CGA:   3    -0.591669784258E+03   -0.28466E+00   -0.28474E+00  1200   0.154E+00 0.270E-03
 gam= 0.149 trial= 0.679  step= 0.526 mean= 0.679
 gam= 0.215 g(H,U,f)=  0.316E-01 0.147E-02 0.201E-15 ort(H,U,f) =-0.195E-02 0.193E-02-0.113E-14
CGA:   4    -0.591710360469E+03   -0.40576E-01   -0.40570E-01  1200   0.331E-01-0.231E-04
 gam= 0.215 trial= 0.671  step= 0.576 mean= 0.671
 gam= 0.238 g(H,U,f)=  0.709E-02 0.790E-03 0.101E-14 ort(H,U,f) =-0.119E-02 0.119E-02 0.815E-16
CGA:   5    -0.591719888103E+03   -0.95276E-02   -0.95278E-02  1200   0.788E-02 0.519E-05
 gam= 0.238 trial= 0.667  step= 0.690 mean= 0.667
 gam= 0.314 g(H,U,f)=  0.231E-02 0.159E-03 0.304E-16 ort(H,U,f) =-0.417E-03 0.423E-03 0.229E-15
CGA:   6    -0.591722604117E+03   -0.27160E-02   -0.27159E-02  1200   0.247E-02 0.565E-05
 gam= 0.314 trial= 0.668  step= 0.731 mean= 0.668
 gam= 0.316 g(H,U,f)=  0.728E-03 0.515E-04 0.429E-16 ort(H,U,f) =-0.124E-03 0.125E-03-0.131E-15
CGA:   7    -0.591723506777E+03   -0.90266E-03   -0.90264E-03  1200   0.780E-03 0.554E-06
 gam= 0.316 trial= 0.671  step= 0.717 mean= 0.671
 gam= 0.250 g(H,U,f)=  0.191E-03 0.373E-05 0.577E-17 ort(H,U,f) =-0.149E-04 0.151E-04-0.503E-18
CGA:   8    -0.591723786211E+03   -0.27943E-03   -0.27943E-03  1200   0.195E-03 0.203E-06
 gam= 0.250 trial= 0.673  step= 0.708 mean= 0.673
 gam= 0.222 g(H,U,f)=  0.424E-04 0.698E-06 0.897E-18 ort(H,U,f) =-0.414E-06 0.905E-06-0.213E-17
CGA:   9    -0.591723855138E+03   -0.68927E-04   -0.68918E-04  1200   0.431E-04 0.490E-06
 gam= 0.222 trial= 0.675  step= 0.754 mean= 0.675
 gam= 0.243 g(H,U,f)=  0.102E-04 0.217E-06 0.610E-18 ort(H,U,f) =-0.206E-06 0.118E-07 0.328E-18
CGA:  10    -0.591723871435E+03   -0.16297E-04   -0.16305E-04  1200   0.105E-04-0.195E-06
 gam= 0.243 trial= 0.679  step= 0.833 mean= 0.679
 gam= 0.296 g(H,U,f)=  0.299E-05 0.108E-06 0.124E-19 ort(H,U,f) =-0.278E-06-0.361E-07-0.920E-19
CGA:  11    -0.591723875751E+03   -0.43163E-05   -0.43405E-05  1200   0.309E-05-0.314E-06
 gam= 0.296 trial= 0.687  step= 0.784 mean= 0.687
 final diagonalization
  23 F= -.59172388E+03 E0= -.59172388E+03  d E =-.763791E-01
 curvature:  -1.83 expect dE=-0.516E+00 dE for cont linesearch -0.155E-04
 trial: gam= 1.05367 g(F)=  0.283E+00 g(S)=  0.000E+00 ort = 0.361E-02 (trialstep = 0.209E+00)
 search vector abs. value=  0.200E+01
 bond charge predicted
 wavefunctions rotated
       N       E                     dE             d eps       ncg     rms          ort
 gam= 0.000 g(H,U,f)=  0.121E+01 0.269E-01 0.123E-12 ort(H,U,f) = 0.000E+00 0.000E+00 0.000E+00
SDA:   1    -0.591239983190E+03    0.48389E+00    0.00000E+00  1200   0.124E+01 0.000E+00
 gam= 0.000 trial= 0.692  step= 0.655 mean= 0.692
 gam= 0.313 g(H,U,f)=  0.362E+00 0.255E-01 0.100E-14 ort(H,U,f) = 0.249E-01-0.252E-01-0.942E-15
CGA:   2    -0.591645516032E+03   -0.40553E+00   -0.40552E+00  1200   0.387E+00-0.257E-03
 gam= 0.313 trial= 0.690  step= 0.541 mean= 0.690
 gam= 0.141 g(H,U,f)=  0.532E-01 0.153E-02 0.396E-16 ort(H,U,f) =-0.146E-02 0.150E-02 0.614E-15
CGA:   3    -0.591750151241E+03   -0.10464E+00   -0.10465E+00  1200   0.548E-01 0.352E-04
 gam= 0.141 trial= 0.682  step= 0.534 mean= 0.682
 gam= 0.222 g(H,U,f)=  0.116E-01 0.590E-03 0.142E-16 ort(H,U,f) =-0.826E-03 0.824E-03-0.930E-16
CGA:   4    -0.591764782134E+03   -0.14631E-01   -0.14630E-01  1200   0.122E-01-0.218E-05
 gam= 0.222 trial= 0.675  step= 0.570 mean= 0.675
 gam= 0.251 g(H,U,f)=  0.275E-02 0.304E-03 0.121E-15 ort(H,U,f) =-0.484E-03 0.488E-03 0.168E-16
CGA:   5    -0.591768252230E+03   -0.34701E-02   -0.34703E-02  1200   0.305E-02 0.418E-05
 gam= 0.251 trial= 0.670  step= 0.691 mean= 0.670
 gam= 0.321 g(H,U,f)=  0.926E-03 0.544E-04 0.126E-17 ort(H,U,f) =-0.153E-03 0.159E-03 0.145E-16
CGA:   6    -0.591769307309E+03   -0.10551E-02   -0.10550E-02  1200   0.980E-03 0.568E-05
 gam= 0.321 trial= 0.671  step= 0.722 mean= 0.671
 gam= 0.318 g(H,U,f)=  0.293E-03 0.183E-04 0.649E-17 ort(H,U,f) =-0.423E-04 0.429E-04-0.137E-16
CGA:   7    -0.591769661771E+03   -0.35446E-03   -0.35444E-03  1200   0.312E-03 0.671E-06
 gam= 0.318 trial= 0.673  step= 0.711 mean= 0.673
 gam= 0.245 g(H,U,f)=  0.752E-04 0.126E-05 0.383E-18 ort(H,U,f) =-0.395E-05 0.386E-05-0.472E-18
CGA:   8    -0.591769772684E+03   -0.11091E-03   -0.11091E-03  1200   0.765E-04-0.943E-07
 gam= 0.245 trial= 0.675  step= 0.702 mean= 0.675
 gam= 0.220 g(H,U,f)=  0.165E-04 0.278E-06 0.910E-19 ort(H,U,f) = 0.268E-06-0.173E-07-0.124E-18
CGA:   9    -0.591769799532E+03   -0.26848E-04   -0.26845E-04  1200   0.168E-04 0.251E-06
 gam= 0.220 trial= 0.677  step= 0.746 mean= 0.677
 gam= 0.246 g(H,U,f)=  0.404E-05 0.848E-07 0.687E-19 ort(H,U,f) =-0.168E-06 0.181E-07 0.527E-19
CGA:  10    -0.591769805811E+03   -0.62787E-05   -0.62840E-05  1200   0.412E-05-0.150E-06
 gam= 0.246 trial= 0.680  step= 0.838 mean= 0.680
 gam= 0.303 g(H,U,f)=  0.121E-05 0.443E-07 0.503E-20 ort(H,U,f) =-0.186E-06-0.789E-08-0.210E-19
CGA:  11    -0.591769807507E+03   -0.16962E-05   -0.17119E-05  1200   0.125E-05-0.194E-06
 gam= 0.303 trial= 0.688  step= 0.819 mean= 0.688
 final diagonalization
  24 F= -.59176981E+03 E0= -.59176981E+03  d E =-.459318E-01
 trial-energy change:   -0.045932  1 .order   -0.045982   -0.059965   -0.031999
 step:   0.4490(harm=  0.4490)  dis= 0.03191  next Energy=  -591.788165 (dE=-0.643E-01)
 bond charge predicted
 wavefunctions rotated
       N       E                     dE             d eps       ncg     rms          ort
 gam= 0.000 g(H,U,f)=  0.159E+01 0.354E-01 0.577E-13 ort(H,U,f) = 0.000E+00 0.000E+00 0.000E+00
SDA:   1    -0.591094892878E+03    0.67491E+00    0.00000E+00  1200   0.162E+01 0.000E+00
 gam= 0.000 trial= 0.694  step= 0.655 mean= 0.694
 gam= 0.313 g(H,U,f)=  0.474E+00 0.334E-01 0.211E-15 ort(H,U,f) = 0.326E-01-0.330E-01-0.199E-15
CGA:   2    -0.591625670573E+03   -0.53078E+00   -0.53075E+00  1200   0.507E+00-0.415E-03
 gam= 0.313 trial= 0.692  step= 0.541 mean= 0.692
 gam= 0.141 g(H,U,f)=  0.696E-01 0.199E-02 0.126E-16 ort(H,U,f) =-0.188E-02 0.194E-02 0.200E-15
CGA:   3    -0.591762731286E+03   -0.13706E+00   -0.13708E+00  1200   0.716E-01 0.644E-04
 gam= 0.141 trial= 0.685  step= 0.535 mean= 0.685
 gam= 0.222 g(H,U,f)=  0.151E-01 0.773E-03 0.510E-17 ort(H,U,f) =-0.108E-02 0.107E-02-0.329E-16
CGA:   4    -0.591781877690E+03   -0.19146E-01   -0.19146E-01  1200   0.159E-01-0.357E-05
 gam= 0.222 trial= 0.677  step= 0.571 mean= 0.677
 gam= 0.250 g(H,U,f)=  0.358E-02 0.397E-03 0.396E-16 ort(H,U,f) =-0.632E-03 0.637E-03 0.528E-17
CGA:   5    -0.591786406756E+03   -0.45291E-02   -0.45293E-02  1200   0.398E-02 0.437E-05
 gam= 0.250 trial= 0.672  step= 0.692 mean= 0.672
 gam= 0.321 g(H,U,f)=  0.121E-02 0.714E-04 0.372E-18 ort(H,U,f) =-0.201E-03 0.208E-03 0.457E-17
CGA:   6    -0.591787782868E+03   -0.13761E-02   -0.13760E-02  1200   0.128E-02 0.668E-05
 gam= 0.321 trial= 0.673  step= 0.723 mean= 0.673
 gam= 0.319 g(H,U,f)=  0.383E-03 0.240E-04 0.225E-17 ort(H,U,f) =-0.555E-04 0.565E-04-0.462E-17
CGA:   7    -0.591788245130E+03   -0.46226E-03   -0.46224E-03  1200   0.407E-03 0.993E-06
 gam= 0.319 trial= 0.676  step= 0.711 mean= 0.676
 gam= 0.246 g(H,U,f)=  0.984E-04 0.166E-05 0.129E-18 ort(H,U,f) =-0.506E-05 0.503E-05-0.165E-18
CGA:   8    -0.591788389996E+03   -0.14487E-03   -0.14487E-03  1200   0.100E-03-0.287E-07
 gam= 0.246 trial= 0.677  step= 0.704 mean= 0.677
 gam= 0.220 g(H,U,f)=  0.217E-04 0.370E-06 0.320E-19 ort(H,U,f) = 0.266E-06-0.265E-07-0.409E-19
CGA:   9    -0.591788425217E+03   -0.35221E-04   -0.35218E-04  1200   0.221E-04 0.240E-06
 gam= 0.220 trial= 0.679  step= 0.746 mean= 0.679
 gam= 0.246 g(H,U,f)=  0.530E-05 0.111E-06 0.219E-19 ort(H,U,f) =-0.189E-06 0.211E-07 0.179E-19
CGA:  10    -0.591788433458E+03   -0.82414E-05   -0.82471E-05  1200   0.542E-05-0.168E-06
 gam= 0.246 trial= 0.682  step= 0.834 mean= 0.682
 gam= 0.301 g(H,U,f)=  0.157E-05 0.583E-07 0.166E-20 ort(H,U,f) =-0.208E-06-0.870E-08-0.682E-20
CGA:  11    -0.591788435684E+03   -0.22256E-05   -0.22418E-05  1200   0.163E-05-0.216E-06
 gam= 0.301 trial= 0.690  step= 0.817 mean= 0.690
 final diagonalization
  25 F= -.59178844E+03 E0= -.59178844E+03  d E =-.645599E-01
 curvature:  -1.57 expect dE=-0.383E+00 dE for cont linesearch -0.832E-05
 trial: gam= 0.88144 g(F)=  0.244E+00 g(S)=  0.000E+00 ort = 0.326E-02 (trialstep = 0.257E+00)
 search vector abs. value=  0.180E+01
 bond charge predicted
 wavefunctions rotated
       N       E                     dE             d eps       ncg     rms          ort
 gam= 0.000 g(H,U,f)=  0.179E+01 0.384E-01 0.140E-13 ort(H,U,f) = 0.000E+00 0.000E+00 0.000E+00
SDA:   1    -0.591043283502E+03    0.74515E+00    0.00000E+00  1200   0.182E+01 0.000E+00
 gam= 0.000 trial= 0.696  step= 0.661 mean= 0.696
 gam= 0.317 g(H,U,f)=  0.532E+00 0.461E-01 0.234E-16 ort(H,U,f) = 0.398E-01-0.402E-01-0.210E-16
CGA:   2    -0.591645891000E+03   -0.60261E+00   -0.60260E+00  1200   0.578E+00-0.343E-03
 gam= 0.317 trial= 0.694  step= 0.543 mean= 0.694
 gam= 0.141 g(H,U,f)=  0.798E-01 0.176E-02 0.306E-17 ort(H,U,f) =-0.165E-02 0.168E-02 0.559E-16
CGA:   3    -0.591802627373E+03   -0.15674E+00   -0.15677E+00  1200   0.815E-01 0.379E-04
 gam= 0.141 trial= 0.687  step= 0.548 mean= 0.687
 gam= 0.214 g(H,U,f)=  0.163E-01 0.116E-02 0.265E-18 ort(H,U,f) =-0.137E-02 0.135E-02-0.449E-17
CGA:   4    -0.591824945981E+03   -0.22319E-01   -0.22316E-01  1200   0.175E-01-0.157E-04
 gam= 0.214 trial= 0.680  step= 0.594 mean= 0.680
 gam= 0.262 g(H,U,f)=  0.414E-02 0.433E-03 0.230E-16 ort(H,U,f) =-0.755E-03 0.761E-03 0.667E-17
CGA:   5    -0.591830130644E+03   -0.51847E-02   -0.51849E-02  1200   0.457E-02 0.551E-05
 gam= 0.262 trial= 0.675  step= 0.700 mean= 0.675
 gam= 0.322 g(H,U,f)=  0.140E-02 0.719E-04 0.827E-19 ort(H,U,f) =-0.210E-03 0.213E-03 0.167E-17
CGA:   6    -0.591831732858E+03   -0.16022E-02   -0.16022E-02  1200   0.147E-02 0.332E-05
 gam= 0.322 trial= 0.677  step= 0.724 mean= 0.677
 gam= 0.307 g(H,U,f)=  0.427E-03 0.245E-04 0.128E-17 ort(H,U,f) =-0.619E-04 0.622E-04-0.303E-17
CGA:   7    -0.591832265774E+03   -0.53292E-03   -0.53291E-03  1200   0.452E-03 0.245E-06
 gam= 0.307 trial= 0.679  step= 0.704 mean= 0.679
 gam= 0.238 g(H,U,f)=  0.106E-03 0.174E-05 0.145E-18 ort(H,U,f) =-0.189E-05 0.220E-05-0.105E-18
CGA:   8    -0.591832424859E+03   -0.15908E-03   -0.15908E-03  1200   0.108E-03 0.303E-06
 gam= 0.238 trial= 0.680  step= 0.703 mean= 0.680
 gam= 0.216 g(H,U,f)=  0.229E-04 0.407E-06 0.322E-19 ort(H,U,f) = 0.155E-06 0.303E-06-0.538E-19
CGA:   9    -0.591832462724E+03   -0.37865E-04   -0.37859E-04  1200   0.233E-04 0.459E-06
 gam= 0.216 trial= 0.681  step= 0.753 mean= 0.681
[...]
SDA:   1    -0.593362593090E+03    0.71572E-02    0.00000E+00  1200   0.177E-01 0.000E+00
 gam= 0.000 trial= 0.658  step= 0.646 mean= 0.658
 gam= 0.291 g(H,U,f)=  0.502E-02 0.121E-03 0.626E-20 ort(H,U,f) = 0.139E-03-0.142E-03-0.527E-20
CGA:   2    -0.593368302615E+03   -0.57095E-02   -0.57095E-02  1200   0.514E-02-0.270E-05
 gam= 0.291 trial= 0.658  step= 0.534 mean= 0.658
 gam= 0.144 g(H,U,f)=  0.723E-03 0.197E-04 0.572E-21 ort(H,U,f) =-0.125E-04 0.129E-04-0.144E-20
CGA:   3    -0.593369674722E+03   -0.13721E-02   -0.13721E-02  1200   0.742E-03 0.453E-06
 gam= 0.144 trial= 0.652  step= 0.535 mean= 0.652
 gam= 0.200 g(H,U,f)=  0.140E-03 0.879E-05 0.199E-22 ort(H,U,f) =-0.131E-04 0.131E-04 0.681E-22
CGA:   4    -0.593369873150E+03   -0.19843E-03   -0.19843E-03  1200   0.149E-03-0.387E-09
 gam= 0.200 trial= 0.646  step= 0.566 mean= 0.646
 gam= 0.224 g(H,U,f)=  0.293E-04 0.407E-05 0.126E-22 ort(H,U,f) =-0.769E-05 0.728E-05 0.268E-22
CGA:   5    -0.593369915280E+03   -0.42130E-04   -0.42114E-04  1200   0.334E-04-0.407E-06
 gam= 0.224 trial= 0.642  step= 0.698 mean= 0.642
 gam= 0.301 g(H,U,f)=  0.896E-05 0.107E-05 0.507E-22 ort(H,U,f) =-0.287E-05 0.280E-05 0.374E-22
CGA:   6    -0.593369926892E+03   -0.11612E-04   -0.11613E-04  1200   0.100E-04-0.675E-07
 gam= 0.301 trial= 0.645  step= 0.745 mean= 0.645
 gam= 0.304 g(H,U,f)=  0.285E-05 0.206E-06 0.167E-23 ort(H,U,f) =-0.696E-06 0.761E-06 0.113E-22
CGA:   7    -0.593369930624E+03   -0.37319E-05   -0.37289E-05  1200   0.305E-05 0.652E-07
 gam= 0.304 trial= 0.650  step= 0.736 mean= 0.650
 gam= 0.240 g(H,U,f)=  0.711E-06 0.202E-07 0.444E-23 ort(H,U,f) =-0.924E-07 0.110E-06 0.834E-23
CGA:   8    -0.593369931755E+03   -0.11314E-05   -0.11306E-05  1200   0.732E-06 0.177E-07
 gam= 0.240 trial= 0.654  step= 0.723 mean= 0.654
 final diagonalization
 679 F= -.59336993E+03 E0= -.59336993E+03  d E =-.179175E-03
 trial-energy change:   -0.000179  1 .order   -0.000179   -0.000228   -0.000130
 step:   0.5146(harm=  0.5146)  dis= 0.00392  next Energy=  -593.370018 (dE=-0.265E-03)
 bond charge predicted
 wavefunctions rotated
       N       E                     dE             d eps       ncg     rms          ort
 gam= 0.000 g(H,U,f)=  0.306E-01 0.351E-03 0.798E-20 ort(H,U,f) = 0.000E+00 0.000E+00 0.000E+00
SDA:   1    -0.593357165289E+03    0.12765E-01    0.00000E+00  1200   0.310E-01 0.000E+00
 gam= 0.000 trial= 0.657  step= 0.646 mean= 0.657
 gam= 0.291 g(H,U,f)=  0.880E-02 0.212E-03 0.114E-19 ort(H,U,f) = 0.245E-03-0.248E-03-0.957E-20
CGA:   2    -0.593367161868E+03   -0.99966E-02   -0.99966E-02  1200   0.901E-02-0.360E-05
 gam= 0.291 trial= 0.657  step= 0.534 mean= 0.657
 gam= 0.144 g(H,U,f)=  0.127E-02 0.345E-04 0.105E-20 ort(H,U,f) =-0.219E-04 0.225E-04-0.265E-20
CGA:   3    -0.593369569770E+03   -0.24079E-02   -0.24079E-02  1200   0.130E-02 0.645E-06
 gam= 0.144 trial= 0.651  step= 0.536 mean= 0.651
 gam= 0.199 g(H,U,f)=  0.243E-03 0.154E-04 0.328E-22 ort(H,U,f) =-0.230E-04 0.230E-04 0.119E-21
CGA:   4    -0.593369917888E+03   -0.34812E-03   -0.34812E-03  1200   0.259E-03-0.151E-07
 gam= 0.199 trial= 0.645  step= 0.569 mean= 0.645
 gam= 0.225 g(H,U,f)=  0.512E-04 0.712E-05 0.233E-22 ort(H,U,f) =-0.133E-04 0.127E-04 0.480E-22
CGA:   5    -0.593369991489E+03   -0.73601E-04   -0.73580E-04  1200   0.583E-04-0.558E-06
 gam= 0.225 trial= 0.641  step= 0.696 mean= 0.641
 gam= 0.299 g(H,U,f)=  0.156E-04 0.188E-05 0.903E-22 ort(H,U,f) =-0.499E-05 0.491E-05 0.674E-22
CGA:   6    -0.593370011726E+03   -0.20237E-04   -0.20239E-04  1200   0.174E-04-0.833E-07
 gam= 0.299 trial= 0.644  step= 0.745 mean= 0.644
 gam= 0.306 g(H,U,f)=  0.497E-05 0.360E-06 0.316E-23 ort(H,U,f) =-0.124E-05 0.133E-05 0.208E-22
CGA:   7    -0.593370018221E+03   -0.64948E-05   -0.64907E-05  1200   0.533E-05 0.870E-07
 gam= 0.306 trial= 0.649  step= 0.735 mean= 0.649
 gam= 0.239 g(H,U,f)=  0.124E-05 0.357E-07 0.792E-23 ort(H,U,f) =-0.175E-06 0.196E-06 0.151E-22
CGA:   8    -0.593370020191E+03   -0.19708E-05   -0.19699E-05  1200   0.127E-05 0.209E-07
 gam= 0.239 trial= 0.653  step= 0.720 mean= 0.653
 final diagonalization
 680 F= -.59337002E+03 E0= -.59337002E+03  d E =-.267611E-03
 curvature:  -5.19 expect dE=-0.606E-02 dE for cont linesearch -0.191E-07
 trial: gam= 1.36816 g(F)=  0.117E-02 g(S)=  0.000E+00 ort = 0.874E-05 (trialstep = 0.145E+00)
 search vector abs. value=  0.401E-01
 bond charge predicted
 wavefunctions rotated
       N       E                     dE             d eps       ncg     rms          ort
 gam= 0.000 g(H,U,f)=  0.140E-01 0.166E-03 0.214E-20 ort(H,U,f) = 0.000E+00 0.000E+00 0.000E+00
SDA:   1    -0.593364295311E+03    0.57229E-02    0.00000E+00  1200   0.142E-01 0.000E+00
 gam= 0.000 trial= 0.657  step= 0.645 mean= 0.657
 gam= 0.290 g(H,U,f)=  0.401E-02 0.995E-04 0.278E-20 ort(H,U,f) = 0.119E-03-0.118E-03-0.244E-20
CGA:   2    -0.593368863819E+03   -0.45685E-02   -0.45685E-02  1200   0.411E-02 0.350E-06
 gam= 0.290 trial= 0.656  step= 0.533 mean= 0.656
 gam= 0.145 g(H,U,f)=  0.582E-03 0.149E-04 0.787E-21 ort(H,U,f) =-0.795E-05 0.787E-05-0.111E-20
CGA:   3    -0.593369959208E+03   -0.10954E-02   -0.10954E-02  1200   0.597E-03-0.737E-07
 gam= 0.145 trial= 0.650  step= 0.535 mean= 0.650
 gam= 0.198 g(H,U,f)=  0.111E-03 0.692E-05 0.278E-22 ort(H,U,f) =-0.967E-05 0.970E-05-0.117E-21
CGA:   4    -0.593370118711E+03   -0.15950E-03   -0.15950E-03  1200   0.118E-03 0.370E-07
 gam= 0.198 trial= 0.644  step= 0.570 mean= 0.644
 gam= 0.225 g(H,U,f)=  0.234E-04 0.316E-05 0.135E-22 ort(H,U,f) =-0.610E-05 0.559E-05-0.321E-23
CGA:   5    -0.593370152393E+03   -0.33682E-04   -0.33663E-04  1200   0.266E-04-0.512E-06
 gam= 0.225 trial= 0.640  step= 0.691 mean= 0.640
 gam= 0.295 g(H,U,f)=  0.702E-05 0.825E-06 0.108E-22 ort(H,U,f) =-0.209E-05 0.217E-05 0.115E-22
CGA:   6    -0.593370161539E+03   -0.91462E-05   -0.91442E-05  1200   0.784E-05 0.778E-07
 gam= 0.295 trial= 0.643  step= 0.743 mean= 0.643
 gam= 0.308 g(H,U,f)=  0.224E-05 0.173E-06 0.185E-24 ort(H,U,f) =-0.546E-06 0.607E-06-0.186E-23
CGA:   7    -0.593370164462E+03   -0.29225E-05   -0.29199E-05  1200   0.242E-05 0.605E-07
 gam= 0.308 trial= 0.648  step= 0.743 mean= 0.648
 gam= 0.248 g(H,U,f)=  0.582E-06 0.172E-07 0.475E-23 ort(H,U,f) =-0.106E-06 0.884E-07 0.198E-23
CGA:   8    -0.593370165366E+03   -0.90389E-06   -0.90500E-06  1200   0.599E-06-0.172E-07
 gam= 0.248 trial= 0.653  step= 0.713 mean= 0.653
 final diagonalization
 681 F= -.59337017E+03 E0= -.59337017E+03  d E =-.145174E-03
 trial-energy change:   -0.000145  1 .order   -0.000144   -0.000171   -0.000117
 step:   0.4620(harm=  0.4620)  dis= 0.00474  next Energy=  -593.370293 (dE=-0.272E-03)
 bond charge predicted
 wavefunctions rotated
       N       E                     dE             d eps       ncg     rms          ort
 gam= 0.000 g(H,U,f)=  0.665E-01 0.788E-03 0.843E-20 ort(H,U,f) = 0.000E+00 0.000E+00 0.000E+00
SDA:   1    -0.593342368795E+03    0.27796E-01    0.00000E+00  1200   0.673E-01 0.000E+00
 gam= 0.000 trial= 0.656  step= 0.646 mean= 0.656
 gam= 0.290 g(H,U,f)=  0.191E-01 0.476E-03 0.120E-19 ort(H,U,f) = 0.562E-03-0.563E-03-0.101E-19
CGA:   2    -0.593364102916E+03   -0.21734E-01   -0.21734E-01  1200   0.195E-01-0.825E-06
 gam= 0.290 trial= 0.655  step= 0.533 mean= 0.655
 gam= 0.146 g(H,U,f)=  0.277E-02 0.710E-04 0.356E-20 ort(H,U,f) =-0.377E-04 0.378E-04-0.505E-20
CGA:   3    -0.593369310679E+03   -0.52078E-02   -0.52078E-02  1200   0.285E-02 0.127E-06
 gam= 0.146 trial= 0.649  step= 0.534 mean= 0.649
 gam= 0.199 g(H,U,f)=  0.532E-03 0.331E-04 0.103E-21 ort(H,U,f) =-0.465E-04 0.464E-04-0.478E-21
CGA:   4    -0.593370070192E+03   -0.75951E-03   -0.75950E-03  1200   0.565E-03-0.289E-07
 gam= 0.199 trial= 0.643  step= 0.568 mean= 0.643
 gam= 0.222 g(H,U,f)=  0.111E-03 0.151E-04 0.622E-22 ort(H,U,f) =-0.279E-04 0.268E-04-0.627E-23
CGA:   5    -0.593370230837E+03   -0.16065E-03   -0.16060E-03  1200   0.126E-03-0.116E-05
 gam= 0.222 trial= 0.640  step= 0.694 mean= 0.640
 gam= 0.296 g(H,U,f)=  0.333E-04 0.394E-05 0.559E-22 ort(H,U,f) =-0.101E-04 0.103E-04 0.580E-22
CGA:   6    -0.593370274373E+03   -0.43535E-04   -0.43530E-04  1200   0.373E-04 0.180E-06
 gam= 0.296 trial= 0.642  step= 0.745 mean= 0.642
 gam= 0.308 g(H,U,f)=  0.107E-04 0.824E-06 0.612E-24 ort(H,U,f) =-0.275E-05 0.289E-05-0.770E-23
CGA:   7    -0.593370288287E+03   -0.13914E-04   -0.13907E-04  1200   0.115E-04 0.144E-06
 gam= 0.308 trial= 0.647  step= 0.738 mean= 0.647
 gam= 0.244 g(H,U,f)=  0.272E-05 0.810E-07 0.216E-22 ort(H,U,f) =-0.457E-06 0.418E-06 0.105E-22
CGA:   8    -0.593370292542E+03   -0.42554E-05   -0.42574E-05  1200   0.281E-05-0.396E-07
 gam= 0.244 trial= 0.652  step= 0.710 mean= 0.652
 final diagonalization
 682 F= -.59337029E+03 E0= -.59337029E+03  d E =-.272351E-03
 curvature:  -7.85 expect dE=-0.912E-02 dE for cont linesearch -0.768E-08
 trial: gam= 0.90104 g(F)=  0.116E-02 g(S)=  0.000E+00 ort =-0.626E-05 (trialstep = 0.209E+00)
 search vector abs. value=  0.337E-01
 bond charge predicted
 wavefunctions rotated
       N       E                     dE             d eps       ncg     rms          ort
 gam= 0.000 g(H,U,f)=  0.238E-01 0.279E-03 0.113E-19 ort(H,U,f) = 0.000E+00 0.000E+00 0.000E+00
SDA:   1    -0.593360500035E+03    0.97883E-02    0.00000E+00  1200   0.241E-01 0.000E+00
 gam= 0.000 trial= 0.655  step= 0.647 mean= 0.655
 gam= 0.287 g(H,U,f)=  0.675E-02 0.166E-03 0.174E-19 ort(H,U,f) = 0.201E-03-0.198E-03-0.152E-19
CGA:   2    -0.593368288836E+03   -0.77888E-02   -0.77888E-02  1200   0.692E-02 0.356E-05
 gam= 0.287 trial= 0.654  step= 0.536 mean= 0.654
 gam= 0.143 g(H,U,f)=  0.966E-03 0.255E-04 0.650E-22 ort(H,U,f) =-0.178E-04 0.185E-04 0.751E-21
CGA:   3    -0.593370144633E+03   -0.18558E-02   -0.18558E-02  1200   0.992E-03 0.670E-06
 gam= 0.143 trial= 0.649  step= 0.536 mean= 0.649
 gam= 0.201 g(H,U,f)=  0.188E-03 0.115E-04 0.114E-22 ort(H,U,f) =-0.174E-04 0.175E-04-0.725E-22
CGA:   4    -0.593370410551E+03   -0.26592E-03   -0.26593E-03  1200   0.199E-03 0.147E-06
 gam= 0.201 trial= 0.643  step= 0.564 mean= 0.643
 gam= 0.226 g(H,U,f)=  0.393E-04 0.570E-05 0.272E-21 ort(H,U,f) =-0.101E-04 0.990E-05 0.151E-22
CGA:   5    -0.593370466669E+03   -0.56118E-04   -0.56109E-04  1200   0.450E-04-0.204E-06
 gam= 0.226 trial= 0.639  step= 0.691 mean= 0.639
 gam= 0.297 g(H,U,f)=  0.119E-04 0.146E-05 0.538E-23 ort(H,U,f) =-0.367E-05 0.387E-05-0.386E-22
CGA:   6    -0.593370482224E+03   -0.15555E-04   -0.15549E-04  1200   0.134E-04 0.204E-06
 gam= 0.297 trial= 0.642  step= 0.751 mean= 0.642
 gam= 0.312 g(H,U,f)=  0.389E-05 0.284E-06 0.869E-24 ort(H,U,f) =-0.101E-05 0.106E-05-0.244E-23
CGA:   7    -0.593370487266E+03   -0.50418E-05   -0.50395E-05  1200   0.417E-05 0.458E-07
 gam= 0.312 trial= 0.647  step= 0.740 mean= 0.647
 gam= 0.244 g(H,U,f)=  0.989E-06 0.289E-07 0.668E-23 ort(H,U,f) =-0.192E-06 0.160E-06-0.297E-24
CGA:   8    -0.593370488812E+03   -0.15462E-05   -0.15476E-05  1200   0.102E-05-0.316E-07
 gam= 0.244 trial= 0.652  step= 0.709 mean= 0.652
 final diagonalization
 683 F= -.59337049E+03 E0= -.59337049E+03  d E =-.196270E-03
 trial-energy change:   -0.000196  1 .order   -0.000195   -0.000241   -0.000149
 step:   0.5491(harm=  0.5491)  dis= 0.00554  next Energy=  -593.370610 (dE=-0.317E-03)
 bond charge predicted
 wavefunctions rotated
       N       E                     dE             d eps       ncg     rms          ort
 gam= 0.000 g(H,U,f)=  0.634E-01 0.741E-03 0.311E-19 ort(H,U,f) = 0.000E+00 0.000E+00 0.000E+00
SDA:   1    -0.593343987586E+03    0.26500E-01    0.00000E+00  1200   0.641E-01 0.000E+00
 gam= 0.000 trial= 0.655  step= 0.648 mean= 0.655
 gam= 0.287 g(H,U,f)=  0.180E-01 0.444E-03 0.507E-19 ort(H,U,f) = 0.533E-03-0.527E-03-0.453E-19
CGA:   2    -0.593364747453E+03   -0.20760E-01   -0.20760E-01  1200   0.184E-01 0.616E-05
 gam= 0.287 trial= 0.654  step= 0.536 mean= 0.654
 gam= 0.144 g(H,U,f)=  0.258E-02 0.680E-04 0.258E-21 ort(H,U,f) =-0.485E-04 0.497E-04 0.245E-20
CGA:   3    -0.593369690377E+03   -0.49429E-02   -0.49430E-02  1200   0.265E-02 0.116E-05
 gam= 0.144 trial= 0.648  step= 0.536 mean= 0.648
 gam= 0.202 g(H,U,f)=  0.503E-03 0.307E-04 0.365E-22 ort(H,U,f) =-0.467E-04 0.469E-04-0.229E-21
CGA:   4    -0.593370399370E+03   -0.70899E-03   -0.70900E-03  1200   0.534E-03 0.203E-06
 gam= 0.202 trial= 0.643  step= 0.563 mean= 0.643
 gam= 0.225 g(H,U,f)=  0.105E-03 0.152E-04 0.807E-21 ort(H,U,f) =-0.269E-04 0.265E-04 0.455E-22
CGA:   5    -0.593370549512E+03   -0.15014E-03   -0.15013E-03  1200   0.120E-03-0.368E-06
 gam= 0.225 trial= 0.639  step= 0.692 mean= 0.639
 gam= 0.296 g(H,U,f)=  0.316E-04 0.390E-05 0.127E-22 ort(H,U,f) =-0.995E-05 0.103E-04-0.102E-21
CGA:   6    -0.593370590958E+03   -0.41446E-04   -0.41436E-04  1200   0.355E-04 0.358E-06
 gam= 0.296 trial= 0.641  step= 0.752 mean= 0.641
 gam= 0.310 g(H,U,f)=  0.103E-04 0.758E-06 0.197E-23 ort(H,U,f) =-0.273E-05 0.282E-05-0.690E-23
CGA:   7    -0.593370604350E+03   -0.13392E-04   -0.13387E-04  1200   0.110E-04 0.879E-07
 gam= 0.310 trial= 0.647  step= 0.738 mean= 0.647
 gam= 0.242 g(H,U,f)=  0.259E-05 0.783E-07 0.203E-22 ort(H,U,f) =-0.482E-06 0.432E-06 0.559E-24
CGA:   8    -0.593370608422E+03   -0.40711E-05   -0.40734E-05  1200   0.267E-05-0.495E-07
 gam= 0.242 trial= 0.651  step= 0.709 mean= 0.651
 final diagonalization
 684 F= -.59337061E+03 E0= -.59337061E+03  d E =-.315880E-03
 curvature:  -8.00 expect dE=-0.903E-02 dE for cont linesearch -0.174E-07
 trial: gam= 0.95748 g(F)=  0.113E-02 g(S)=  0.000E+00 ort =-0.855E-05 (trialstep = 0.277E+00)
 search vector abs. value=  0.320E-01
 bond charge predicted
 wavefunctions rotated
       N       E                     dE             d eps       ncg     rms          ort
 gam= 0.000 g(H,U,f)=  0.405E-01 0.466E-03 0.776E-19 ort(H,U,f) = 0.000E+00 0.000E+00 0.000E+00
SDA:   1    -0.593353753591E+03    0.16851E-01    0.00000E+00  1200   0.409E-01 0.000E+00
 gam= 0.000 trial= 0.654  step= 0.651 mean= 0.654
 gam= 0.287 g(H,U,f)=  0.115E-01 0.282E-03 0.125E-18 ort(H,U,f) = 0.331E-03-0.331E-03-0.107E-18
CGA:   2    -0.593367082039E+03   -0.13328E-01   -0.13328E-01  1200   0.118E-01-0.127E-06
 gam= 0.287 trial= 0.654  step= 0.535 mean= 0.654
 gam= 0.143 g(H,U,f)=  0.164E-02 0.435E-04 0.232E-22 ort(H,U,f) =-0.224E-04 0.237E-04-0.119E-20
CGA:   3    -0.593370226769E+03   -0.31447E-02   -0.31448E-02  1200   0.168E-02 0.126E-05
 gam= 0.143 trial= 0.648  step= 0.537 mean= 0.648
 gam= 0.198 g(H,U,f)=  0.314E-03 0.183E-04 0.232E-21 ort(H,U,f) =-0.277E-04 0.279E-04 0.467E-21
CGA:   4    -0.593370677568E+03   -0.45080E-03   -0.45081E-03  1200   0.332E-03 0.198E-06
 gam= 0.198 trial= 0.643  step= 0.562 mean= 0.643
 gam= 0.223 g(H,U,f)=  0.648E-04 0.929E-05 0.137E-20 ort(H,U,f) =-0.158E-04 0.158E-04 0.784E-21
CGA:   5    -0.593370770878E+03   -0.93311E-04   -0.93313E-04  1200   0.740E-04 0.430E-07
 gam= 0.223 trial= 0.639  step= 0.691 mean= 0.639
 gam= 0.294 g(H,U,f)=  0.194E-04 0.241E-05 0.287E-24 ort(H,U,f) =-0.628E-05 0.626E-05-0.222E-22
CGA:   6    -0.593370796446E+03   -0.25567E-04   -0.25568E-04  1200   0.218E-04-0.260E-07
 gam= 0.294 trial= 0.641  step= 0.752 mean= 0.641
 gam= 0.313 g(H,U,f)=  0.634E-05 0.474E-06 0.128E-23 ort(H,U,f) =-0.170E-05 0.172E-05 0.133E-22
CGA:   7    -0.593370804635E+03   -0.81891E-05   -0.81872E-05  1200   0.682E-05 0.272E-07
 gam= 0.313 trial= 0.647  step= 0.732 mean= 0.647
 gam= 0.242 g(H,U,f)=  0.160E-05 0.540E-07 0.130E-22 ort(H,U,f) =-0.269E-06 0.286E-06 0.173E-22
CGA:   8    -0.593370807134E+03   -0.24989E-05   -0.24982E-05  1200   0.165E-05 0.174E-07
 gam= 0.242 trial= 0.651  step= 0.717 mean= 0.651
 final diagonalization
 685 F= -.59337081E+03 E0= -.59337081E+03  d E =-.198712E-03
 trial-energy change:   -0.000199  1 .order   -0.000197   -0.000310   -0.000084
 step:   0.3791(harm=  0.3791)  dis= 0.00340  next Energy=  -593.370821 (dE=-0.212E-03)
 bond charge predicted
 wavefunctions rotated
       N       E                     dE             d eps       ncg     rms          ort
 gam= 0.000 g(H,U,f)=  0.555E-02 0.641E-04 0.110E-19 ort(H,U,f) = 0.000E+00 0.000E+00 0.000E+00
SDA:   1    -0.593368487702E+03    0.23169E-02    0.00000E+00  1200   0.561E-02 0.000E+00
 gam= 0.000 trial= 0.654  step= 0.651 mean= 0.654
 gam= 0.287 g(H,U,f)=  0.157E-02 0.386E-04 0.175E-19 ort(H,U,f) = 0.451E-04-0.454E-04-0.143E-19
CGA:   2    -0.593370313067E+03   -0.18254E-02   -0.18254E-02  1200   0.161E-02-0.281E-06
 gam= 0.287 trial= 0.654  step= 0.535 mean= 0.654
 gam= 0.142 g(H,U,f)=  0.223E-03 0.597E-05 0.995E-23 ort(H,U,f) =-0.280E-05 0.327E-05-0.310E-21
CGA:   3    -0.593370744156E+03   -0.43109E-03   -0.43111E-03  1200   0.229E-03 0.464E-06
 gam= 0.142 trial= 0.648  step= 0.538 mean= 0.648
 gam= 0.196 g(H,U,f)=  0.426E-04 0.250E-05 0.342E-22 ort(H,U,f) =-0.374E-05 0.383E-05 0.635E-22
CGA:   4    -0.593370805888E+03   -0.61732E-04   -0.61737E-04  1200   0.451E-04 0.855E-07
 gam= 0.196 trial= 0.643  step= 0.564 mean= 0.643
 gam= 0.226 g(H,U,f)=  0.890E-05 0.127E-05 0.193E-21 ort(H,U,f) =-0.215E-05 0.217E-05 0.111E-21
CGA:   5    -0.593370818593E+03   -0.12705E-04   -0.12706E-04  1200   0.102E-04 0.166E-07
 gam= 0.226 trial= 0.639  step= 0.692 mean= 0.639
 gam= 0.297 g(H,U,f)=  0.270E-05 0.329E-06 0.338E-24 ort(H,U,f) =-0.875E-06 0.858E-06-0.911E-23
CGA:   6    -0.593370822115E+03   -0.35214E-05   -0.35218E-05  1200   0.303E-05-0.175E-07
 gam= 0.297 trial= 0.641  step= 0.749 mean= 0.641
 gam= 0.314 g(H,U,f)=  0.887E-06 0.639E-07 0.847E-25 ort(H,U,f) =-0.229E-06 0.235E-06 0.119E-23
CGA:   7    -0.593370823247E+03   -0.11318E-05   -0.11314E-05  1200   0.951E-06 0.596E-08
 gam= 0.314 trial= 0.647  step= 0.729 mean= 0.647
 gam= 0.242 g(H,U,f)=  0.223E-06 0.726E-08 0.174E-23 ort(H,U,f) =-0.338E-07 0.389E-07 0.208E-23
CGA:   8    -0.593370823594E+03   -0.34720E-06   -0.34723E-06  1200   0.230E-06 0.508E-08
 gam= 0.242 trial= 0.651  step= 0.730 mean= 0.651
 final diagonalization
 686 F= -.59337082E+03 E0= -.59337082E+03  d E =-.215172E-03
 curvature:  -5.42 expect dE=-0.517E-02 dE for cont linesearch -0.627E-09
 trial: gam= 0.84086 g(F)=  0.954E-03 g(S)=  0.000E+00 ort = 0.192E-05 (trialstep = 0.297E+00)
 search vector abs. value=  0.236E-01
 bond charge predicted
 wavefunctions rotated
       N       E                     dE             d eps       ncg     rms          ort
 gam= 0.000 g(H,U,f)=  0.340E-01 0.381E-03 0.628E-19 ort(H,U,f) = 0.000E+00 0.000E+00 0.000E+00
SDA:   1    -0.593356611292E+03    0.14212E-01    0.00000E+00  1200   0.344E-01 0.000E+00
 gam= 0.000 trial= 0.655  step= 0.658 mean= 0.655
 gam= 0.287 g(H,U,f)=  0.965E-02 0.238E-03 0.100E-18 ort(H,U,f) = 0.272E-03-0.275E-03-0.837E-19
CGA:   2    -0.593367937215E+03   -0.11326E-01   -0.11326E-01  1200   0.989E-02-0.305E-05
 gam= 0.287 trial= 0.655  step= 0.532 mean= 0.655
 gam= 0.142 g(H,U,f)=  0.137E-02 0.360E-04 0.165E-21 ort(H,U,f) =-0.183E-04 0.199E-04-0.294E-20
CGA:   3    -0.593370567481E+03   -0.26303E-02   -0.26303E-02  1200   0.140E-02 0.166E-05
 gam= 0.142 trial= 0.649  step= 0.536 mean= 0.649
 gam= 0.197 g(H,U,f)=  0.261E-03 0.154E-04 0.124E-21 ort(H,U,f) =-0.230E-04 0.231E-04 0.219E-21
CGA:   4    -0.593370943201E+03   -0.37572E-03   -0.37572E-03  1200   0.277E-03 0.966E-07
 gam= 0.197 trial= 0.643  step= 0.563 mean= 0.643
 gam= 0.220 g(H,U,f)=  0.534E-04 0.757E-05 0.884E-21 ort(H,U,f) =-0.132E-04 0.131E-04 0.448E-21
CGA:   5    -0.593371021111E+03   -0.77910E-04   -0.77905E-04  1200   0.609E-04-0.112E-06
 gam= 0.220 trial= 0.639  step= 0.691 mean= 0.639
 gam= 0.292 g(H,U,f)=  0.158E-04 0.200E-05 0.457E-23 ort(H,U,f) =-0.525E-05 0.516E-05-0.706E-22
CGA:   6    -0.593371042152E+03   -0.21041E-04   -0.21044E-04  1200   0.178E-04-0.924E-07
 gam= 0.292 trial= 0.642  step= 0.749 mean= 0.642
srun: Job step aborted: Waiting up to 32 seconds for job step to finish.
slurmstepd: error: *** JOB 2317965 ON nid003450 CANCELLED AT 2022-09-14T18:07:24 DUE TO TIME LIMIT ***
slurmstepd: error: *** STEP 2317965.0 ON nid003450 CANCELLED AT 2022-09-14T18:07:24 DUE TO TIME LIMIT ***
