ortho-FASnI3                            
           1
     8.837900    0.000000    0.000000
     0.000000    8.837900    0.000000
     0.000000    0.000000   12.406600
   C    H    I    N    Sn
     4    20    12     8     4
Direct configuration=     1
   0.47924616  0.03254157  0.47633368
   0.97875115  0.53254157  0.47607256
   0.52494627  0.03254157  0.04078297
   0.03171453  0.53254157  0.03402859
   0.49031476  0.96419954  0.31770792
   0.62690508  0.85252143  0.47929923
   0.58931139  0.94077769  0.60311596
   0.37316170  0.11932689  0.34568731
   0.42526283  0.11717706  0.52916533
   0.99370434  0.46419954  0.31760858
   0.12631493  0.35252143  0.48087341
   0.08569350  0.44077769  0.60420390
   0.87588363  0.61932689  0.34412722
   0.92348169  0.61717706  0.52822503
   0.30674128  0.96419954  0.00818073
   0.55215699  0.85252143  0.93735636
   0.71794942  0.94077769  0.98317590
   0.32720825  0.11932689  0.09498475
   0.58975313  0.11717706  0.08702949
   0.81049742  0.46419954  0.05380867
   0.01017361  0.35252143  0.92992610
   0.18787438  0.44077769  0.93479874
   0.86952145  0.61932689  0.13113678
   0.11412671  0.61717706  0.06272552
   0.00000000  0.00000000  0.00835000
   0.50000000  0.50000000  0.00835000
   0.69870000  0.19870000  0.75040000
   0.30130000  0.80130000  0.75040000
   0.80130000  0.69870000  0.75040000
   0.19870000  0.30130000  0.75040000
   0.00000000  0.00000000  0.50970000
   0.50000000  0.50000000  0.50970000
   0.73403000  0.23403000  0.24900000
   0.26597000  0.76597000  0.24900000
   0.76597000  0.73403000  0.24900000
   0.23403000  0.26597000  0.24900000
   0.57276429  0.93659117  0.52103933
   0.44467549  0.03593604  0.37388611
   0.07115977  0.43659117  0.52193406
   0.94669567  0.53593604  0.37321080
   0.60156066  0.93659117  0.98197857
   0.37749344  0.03593604  0.04908002
   0.07727943  0.43659117  0.96065953
   0.89608715  0.53593604  0.07607087
   0.00000000  0.00000000  0.25380000
   0.50000000  0.50000000  0.25380000
   0.00000000  0.00000000  0.75370000
   0.50000000  0.50000000  0.75370000
Direct configuration=     2
   0.47814820  0.03369988  0.47684939
   0.97880213  0.53239124  0.47571582
   0.52611923  0.03376691  0.04017751
   0.03233545  0.53336940  0.03401897
   0.48938707  0.96573909  0.31991966
   0.62516937  0.85486163  0.48027145
   0.58912661  0.94061409  0.60042815
   0.37556947  0.11629968  0.34674997
   0.42667176  0.11496502  0.52801042
   0.99319839  0.46515328  0.31967703
   0.12456132  0.35489401  0.48184412
   0.08589810  0.43996241  0.60196155
   0.88105363  0.61351980  0.34835838
   0.92481099  0.61510796  0.52719844
   0.30881268  0.96561006  0.00891539
   0.55261142  0.85465430  0.93807355
   0.71489928  0.94093458  0.98291107
   0.32892810  0.11640666  0.09335590
   0.58826083  0.11511509  0.08575506
   0.81259245  0.46552014  0.05386610
   0.01181983  0.35489911  0.93059633
   0.18364367  0.44027581  0.93560385
   0.87120490  0.61593915  0.12810692
   0.11229914  0.61522865  0.06208476
   0.00000000  0.00000000  0.00835000
   0.50000000  0.50000000  0.00835000
   0.69870000  0.19870000  0.75040000
   0.30130000  0.80130000  0.75040000
   0.80130000  0.69870000  0.75040000
   0.19870000  0.30130000  0.75040000
   0.00000000  0.00000000  0.50970000
   0.50000000  0.50000000  0.50970000
   0.73403000  0.23403000  0.24900000
   0.26597000  0.76597000  0.24900000
   0.76597000  0.73403000  0.24900000
   0.23403000  0.26597000  0.24900000
   0.57461045  0.93460334  0.52345253
   0.44722808  0.03530246  0.37489724
   0.07115297  0.43678815  0.52320520
   0.95282724  0.52990744  0.37665735
   0.60318927  0.93403488  0.98182416
   0.37575396  0.03691206  0.04846485
   0.07916614  0.43667509  0.96187653
   0.89804332  0.53289698  0.07320325
   0.00000000  0.00000000  0.25380000
   0.50000000  0.50000000  0.25380000
   0.00000000  0.00000000  0.75370000
   0.50000000  0.50000000  0.75370000
Direct configuration=     3
   0.47870906  0.03310818  0.47658595
   0.97877609  0.53246803  0.47589805
   0.52552005  0.03314097  0.04048679
   0.03201827  0.53294652  0.03402388
   0.48986096  0.96495265  0.31878985
   0.62605601  0.85366620  0.47977482
   0.58922100  0.94069766  0.60180115
   0.37433952  0.11784605  0.34620714
   0.42595205  0.11609498  0.52860038
   0.99345684  0.46466608  0.31862041
   0.12545711  0.35368203  0.48134825
   0.08579359  0.44037888  0.60310700
   0.87841266  0.61648621  0.34619700
   0.92413195  0.61616491  0.52772285
   0.30775456  0.96488953  0.00854011
   0.55237929  0.85356477  0.93770719
   0.71645737  0.94085444  0.98304635
   0.32804956  0.11789839  0.09418796
   0.58902313  0.11616839  0.08640607
   0.81152226  0.46484554  0.05383677
   0.01097890  0.35368453  0.93025396
   0.18580483  0.44053218  0.93519258
   0.87034495  0.61766969  0.12965465
   0.11323271  0.61622394  0.06241208
   0.00000000  0.00000000  0.00835000
   0.50000000  0.50000000  0.00835000
   0.69870000  0.19870000  0.75040000
   0.30130000  0.80130000  0.75040000
   0.80130000  0.69870000  0.75040000
   0.19870000  0.30130000  0.75040000
   0.00000000  0.00000000  0.50970000
   0.50000000  0.50000000  0.50970000
   0.73403000  0.23403000  0.24900000
   0.26597000  0.76597000  0.24900000
   0.76597000  0.73403000  0.24900000
   0.23403000  0.26597000  0.24900000
   0.57366738  0.93561878  0.52221981
   0.44592415  0.03562611  0.37438073
   0.07115644  0.43668753  0.52255587
   0.94969508  0.53298700  0.37489677
   0.60235734  0.93534070  0.98190304
   0.37664253  0.03641349  0.04877910
   0.07820236  0.43663222  0.96125485
   0.89704406  0.53444941  0.07466810
   0.00000000  0.00000000  0.25380000
   0.50000000  0.50000000  0.25380000
   0.00000000  0.00000000  0.75370000
   0.50000000  0.50000000  0.75370000
Direct configuration=     4
   0.48040673  0.03122995  0.47762600
   0.98067232  0.53090755  0.47808238
   0.52489034  0.03235147  0.03913346
   0.03309827  0.53242275  0.03319869
   0.48981566  0.96517009  0.32003411
   0.62535423  0.85452316  0.48021462
   0.58959121  0.94054318  0.60168518
   0.37604379  0.11565661  0.34697045
   0.42647644  0.11521907  0.52821372
   0.99427702  0.46370966  0.31952501
   0.12437322  0.35510483  0.48194782
   0.08615014  0.43982135  0.60248763
   0.88279281  0.61144936  0.34957775
   0.92485812  0.61495343  0.52701361
   0.30863036  0.96525718  0.00867742
   0.55225885  0.85429882  0.93772976
   0.71567027  0.94091878  0.98274780
   0.32861681  0.11677305  0.09351203
   0.58842105  0.11525343  0.08569817
   0.81235515  0.46478307  0.05338513
   0.01214481  0.35544506  0.93074345
   0.18435384  0.44025111  0.93540761
   0.87170621  0.61478204  0.12708478
   0.11233320  0.61541836  0.06216928
   0.00000000  0.00000000  0.00835000
   0.50000000  0.50000000  0.00835000
   0.69870000  0.19870000  0.75040000
   0.30130000  0.80130000  0.75040000
   0.80130000  0.69870000  0.75040000
   0.19870000  0.30130000  0.75040000
   0.00000000  0.00000000  0.50970000
   0.50000000  0.50000000  0.50970000
   0.73403000  0.23403000  0.24900000
   0.26597000  0.76597000  0.24900000
   0.76597000  0.73403000  0.24900000
   0.23403000  0.26597000  0.24900000
   0.57230904  0.93670435  0.52171519
   0.44746480  0.03593997  0.37573878
   0.07057291  0.43736759  0.52272524
   0.95198190  0.53078818  0.37591668
   0.60162615  0.93531555  0.98296007
   0.37875882  0.03663649  0.04779230
   0.07814406  0.43667483  0.96266511
   0.89825613  0.53357159  0.07339219
   0.00000000  0.00000000  0.25380000
   0.50000000  0.50000000  0.25380000
   0.00000000  0.00000000  0.75370000
   0.50000000  0.50000000  0.75370000
Direct configuration=     5
   0.48003623  0.03163986  0.47739902
   0.98025849  0.53124811  0.47760567
   0.52502777  0.03252377  0.03942881
   0.03286257  0.53253706  0.03337878
   0.48982555  0.96512263  0.31976257
   0.62550739  0.85433613  0.48011864
   0.58951041  0.94057689  0.60171049
   0.37567185  0.11613443  0.34680387
   0.42636200  0.11541023  0.52829810
   0.99409802  0.46391839  0.31932759
   0.12460976  0.35479432  0.48181697
   0.08607233  0.43994302  0.60262280
   0.88183688  0.61254861  0.34883994
   0.92469964  0.61521782  0.52716839
   0.30843922  0.96517694  0.00864745
   0.55228514  0.85413862  0.93772483
   0.71584205  0.94090473  0.98281296
   0.32849301  0.11701864  0.09365955
   0.58855245  0.11545311  0.08585266
   0.81217338  0.46479671  0.05348369
   0.01189036  0.35506084  0.93063662
   0.18467051  0.44031245  0.93536068
   0.87140913  0.61541224  0.12764563
   0.11252951  0.61559417  0.06222227
   0.00000000  0.00000000  0.00835000
   0.50000000  0.50000000  0.00835000
   0.69870000  0.19870000  0.75040000
   0.30130000  0.80130000  0.75040000
   0.80130000  0.69870000  0.75040000
   0.19870000  0.30130000  0.75040000
   0.00000000  0.00000000  0.50970000
   0.50000000  0.50000000  0.50970000
   0.73403000  0.23403000  0.24900000
   0.26597000  0.76597000  0.24900000
   0.76597000  0.73403000  0.24900000
   0.23403000  0.26597000  0.24900000
   0.57260549  0.93646743  0.52182532
   0.44712857  0.03587147  0.37544240
   0.07070026  0.43721917  0.52268827
   0.95148283  0.53126805  0.37569409
   0.60178573  0.93532104  0.98272938
   0.37829696  0.03658783  0.04800766
   0.07815678  0.43666553  0.96235734
   0.89799161  0.53376316  0.07367064
   0.00000000  0.00000000  0.25380000
   0.50000000  0.50000000  0.25380000
   0.00000000  0.00000000  0.75370000
   0.50000000  0.50000000  0.75370000
Direct configuration=     6
   0.48001846  0.03178223  0.47761125
   0.98051295  0.53104349  0.47790407
   0.52528935  0.03271533  0.03912038
   0.03293570  0.53258664  0.03338914
   0.49035314  0.96449703  0.32024215
   0.62545492  0.85427423  0.48008199
   0.58991632  0.94051746  0.60237419
   0.37622597  0.11540642  0.34728249
   0.42650084  0.11519530  0.52846225
   0.99575350  0.46171864  0.31920752
   0.12438613  0.35498968  0.48182831
   0.08657809  0.43959576  0.60339661
   0.88345147  0.61060251  0.35041265
   0.92477745  0.61507278  0.52718883
   0.30864256  0.96490269  0.00843156
   0.55192475  0.85409413  0.93744501
   0.71617611  0.94100365  0.98262007
   0.32866005  0.11697099  0.09355257
   0.58838065  0.11511054  0.08540352
   0.81215968  0.46384632  0.05275167
   0.01193963  0.35553855  0.93076167
   0.18526623  0.44023964  0.93517319
   0.87205047  0.61440085  0.12648599
   0.11270585  0.61586267  0.06229551
   0.00000000  0.00000000  0.00835000
   0.50000000  0.50000000  0.00835000
   0.69870000  0.19870000  0.75040000
   0.30130000  0.80130000  0.75040000
   0.80130000  0.69870000  0.75040000
   0.19870000  0.30130000  0.75040000
   0.00000000  0.00000000  0.50970000
   0.50000000  0.50000000  0.50970000
   0.73403000  0.23403000  0.24900000
   0.26597000  0.76597000  0.24900000
   0.76597000  0.73403000  0.24900000
   0.23403000  0.26597000  0.24900000
   0.57274784  0.93605961  0.52196622
   0.44827148  0.03582353  0.37629643
   0.07187116  0.43611691  0.52360213
   0.95253071  0.53048097  0.37701885
   0.60119468  0.93479236  0.98304232
   0.37897869  0.03640391  0.04707321
   0.07857003  0.43558884  0.96247311
   0.89841336  0.53345531  0.07306977
   0.00000000  0.00000000  0.25380000
   0.50000000  0.50000000  0.25380000
   0.00000000  0.00000000  0.75370000
   0.50000000  0.50000000  0.75370000
Direct configuration=     7
   0.48001674  0.03179606  0.47763187
   0.98053768  0.53102360  0.47793307
   0.52531476  0.03273395  0.03909041
   0.03294281  0.53259146  0.03339014
   0.49040440  0.96443624  0.32028875
   0.62544983  0.85426821  0.48007843
   0.58995576  0.94051169  0.60243868
   0.37627981  0.11533568  0.34732900
   0.42651433  0.11517442  0.52847820
   0.99591436  0.46150490  0.31919585
   0.12436440  0.35500866  0.48182941
   0.08662723  0.43956202  0.60347179
   0.88360836  0.61041341  0.35056547
   0.92478501  0.61505868  0.52719082
   0.30866232  0.96487604  0.00841058
   0.55188974  0.85408980  0.93741782
   0.71620857  0.94101326  0.98260133
   0.32867628  0.11696636  0.09354218
   0.58836396  0.11507725  0.08535988
   0.81215835  0.46375397  0.05268054
   0.01194441  0.35558496  0.93077382
   0.18532411  0.44023256  0.93515497
   0.87211278  0.61430257  0.12637331
   0.11272299  0.61588876  0.06230263
   0.00000000  0.00000000  0.00835000
   0.50000000  0.50000000  0.00835000
   0.69870000  0.19870000  0.75040000
   0.30130000  0.80130000  0.75040000
   0.80130000  0.69870000  0.75040000
   0.19870000  0.30130000  0.75040000
   0.00000000  0.00000000  0.50970000
   0.50000000  0.50000000  0.50970000
   0.73403000  0.23403000  0.24900000
   0.26597000  0.76597000  0.24900000
   0.76597000  0.73403000  0.24900000
   0.23403000  0.26597000  0.24900000
   0.57276167  0.93601998  0.52197991
   0.44838253  0.03581888  0.37637942
   0.07198493  0.43600981  0.52369092
   0.95263253  0.53040449  0.37714758
   0.60113725  0.93474099  0.98307273
   0.37904493  0.03638604  0.04698241
   0.07861018  0.43548422  0.96248436
   0.89845434  0.53342540  0.07301139
   0.00000000  0.00000000  0.25380000
   0.50000000  0.50000000  0.25380000
   0.00000000  0.00000000  0.75370000
   0.50000000  0.50000000  0.75370000
Direct configuration=     8
   0.48009799  0.03186706  0.47795194
   0.98101351  0.53064063  0.47850801
   0.52550501  0.03283583  0.03895077
   0.03320858  0.53248607  0.03328301
   0.49075147  0.96404161  0.32059947
   0.62549792  0.85411420  0.48000186
   0.59018731  0.94045900  0.60276482
   0.37653710  0.11499956  0.34760649
   0.42653824  0.11514549  0.52866014
   0.99676921  0.46042565  0.31937912
   0.12444220  0.35482638  0.48174229
   0.08698676  0.43932999  0.60409980
   0.88413272  0.60973229  0.35125496
   0.92478304  0.61506296  0.52728840
   0.30874005  0.96461663  0.00822128
   0.55163140  0.85400697  0.93722774
   0.71627380  0.94104676  0.98248511
   0.32884499  0.11685974  0.09342020
   0.58836523  0.11500695  0.08514626
   0.81222781  0.46320963  0.05223612
   0.01176357  0.35559712  0.93074819
   0.18576206  0.44017634  0.93502230
   0.87235396  0.61402112  0.12590298
   0.11288999  0.61610783  0.06235820
   0.00000000  0.00000000  0.00835000
   0.50000000  0.50000000  0.00835000
   0.69870000  0.19870000  0.75040000
   0.30130000  0.80130000  0.75040000
   0.80130000  0.69870000  0.75040000
   0.19870000  0.30130000  0.75040000
   0.00000000  0.00000000  0.50970000
   0.50000000  0.50000000  0.50970000
   0.73403000  0.23403000  0.24900000
   0.26597000  0.76597000  0.24900000
   0.76597000  0.73403000  0.24900000
   0.23403000  0.26597000  0.24900000
   0.57290434  0.93578442  0.52229200
   0.44893663  0.03575846  0.37649459
   0.07236072  0.43574912  0.52417284
   0.95346813  0.52946639  0.37732447
   0.60121655  0.93430798  0.98313680
   0.37903289  0.03652917  0.04658381
   0.07908325  0.43510826  0.96262680
   0.89835528  0.53302875  0.07262079
   0.00000000  0.00000000  0.25380000
   0.50000000  0.50000000  0.25380000
   0.00000000  0.00000000  0.75370000
   0.50000000  0.50000000  0.75370000
Direct configuration=     9
   0.48034176  0.03208004  0.47891217
   0.98244100  0.52949172  0.48023284
   0.52607573  0.03314148  0.03853186
   0.03400590  0.53216992  0.03296162
   0.49179269  0.96285773  0.32153163
   0.62564222  0.85365218  0.47977215
   0.59088196  0.94030094  0.60374325
   0.37730899  0.11399119  0.34843896
   0.42660997  0.11505869  0.52920595
   0.99933374  0.45718790  0.31992892
   0.12467560  0.35427952  0.48148093
   0.08806534  0.43863390  0.60598380
   0.88570580  0.60768892  0.35332343
   0.92477713  0.61507579  0.52758114
   0.30897323  0.96383838  0.00765336
   0.55085639  0.85375849  0.93665749
   0.71646949  0.94114726  0.98213647
   0.32935113  0.11653986  0.09305426
   0.58836906  0.11479605  0.08450542
   0.81243620  0.46157662  0.05090283
   0.01122106  0.35563360  0.93067130
   0.18707589  0.44000768  0.93462430
   0.87307748  0.61317678  0.12449200
   0.11339101  0.61676505  0.06252491
   0.00000000  0.00000000  0.00835000
   0.50000000  0.50000000  0.00835000
   0.69870000  0.19870000  0.75040000
   0.30130000  0.80130000  0.75040000
   0.80130000  0.69870000  0.75040000
   0.19870000  0.30130000  0.75040000
   0.00000000  0.00000000  0.50970000
   0.50000000  0.50000000  0.50970000
   0.73403000  0.23403000  0.24900000
   0.26597000  0.76597000  0.24900000
   0.76597000  0.73403000  0.24900000
   0.23403000  0.26597000  0.24900000
   0.57333236  0.93507774  0.52322826
   0.45059895  0.03557722  0.37684010
   0.07348809  0.43496707  0.52561857
   0.95597491  0.52665211  0.37785513
   0.60145447  0.93300893  0.98332900
   0.37899679  0.03695857  0.04538803
   0.08050246  0.43398037  0.96305413
   0.89805807  0.53183881  0.07144902
   0.00000000  0.00000000  0.25380000
   0.50000000  0.50000000  0.25380000
   0.00000000  0.00000000  0.75370000
   0.50000000  0.50000000  0.75370000
Direct configuration=    10
   0.48082929  0.03250600  0.48083262
   0.98529599  0.52719390  0.48368250
   0.52721719  0.03375279  0.03769403
   0.03560054  0.53153761  0.03231884
   0.49387512  0.96048996  0.32339596
   0.62593080  0.85272814  0.47931272
   0.59227126  0.93998483  0.60570010
   0.37885277  0.11197447  0.35010391
   0.42675342  0.11488510  0.53029758
   0.00446279  0.45071241  0.32102853
   0.12514241  0.35318580  0.48095820
   0.09022251  0.43724172  0.60975181
   0.88885195  0.60360218  0.35746038
   0.92476530  0.61510146  0.52816663
   0.30943960  0.96228190  0.00651753
   0.54930638  0.85326153  0.93551700
   0.71686086  0.94134828  0.98143917
   0.33036341  0.11590010  0.09232238
   0.58837672  0.11437424  0.08322374
   0.81285298  0.45831060  0.04823626
   0.01013602  0.35570655  0.93051754
   0.18970356  0.43967036  0.93382828
   0.87452453  0.61148809  0.12167002
   0.11439303  0.61807949  0.06285834
   0.00000000  0.00000000  0.00835000
   0.50000000  0.50000000  0.00835000
   0.69870000  0.19870000  0.75040000
   0.30130000  0.80130000  0.75040000
   0.80130000  0.69870000  0.75040000
   0.19870000  0.30130000  0.75040000
   0.00000000  0.00000000  0.50970000
   0.50000000  0.50000000  0.50970000
   0.73403000  0.23403000  0.24900000
   0.26597000  0.76597000  0.24900000
   0.76597000  0.73403000  0.24900000
   0.23403000  0.26597000  0.24900000
   0.57418840  0.93366437  0.52510080
   0.45392359  0.03521474  0.37753111
   0.07574283  0.43340297  0.52851005
   0.96098847  0.52102355  0.37891645
   0.60193030  0.93041085  0.98371340
   0.37892457  0.03781736  0.04299645
   0.08334088  0.43172459  0.96390880
   0.89746366  0.52945893  0.06910547
   0.00000000  0.00000000  0.25380000
   0.50000000  0.50000000  0.25380000
   0.00000000  0.00000000  0.75370000
   0.50000000  0.50000000  0.75370000
Direct configuration=    11
   0.48057893  0.03228725  0.47984641
   0.98382986  0.52837391  0.48191099
   0.52663101  0.03343887  0.03812428
   0.03478164  0.53186232  0.03264893
   0.49280572  0.96170588  0.32243857
   0.62578260  0.85320267  0.47954865
   0.59155781  0.94014717  0.60469520
   0.37805999  0.11301012  0.34924890
   0.42667975  0.11497425  0.52973699
   0.00182886  0.45403779  0.32046385
   0.12490269  0.35374746  0.48122664
   0.08911473  0.43795665  0.60781681
   0.88723630  0.60570086  0.35533592
   0.92477137  0.61508828  0.52786596
   0.30920010  0.96308120  0.00710082
   0.55010236  0.85351674  0.93610268
   0.71665987  0.94124505  0.98179725
   0.32984358  0.11622864  0.09269822
   0.58837279  0.11459085  0.08388192
   0.81263895  0.45998781  0.04960563
   0.01069322  0.35566909  0.93059650
   0.18835417  0.43984358  0.93423706
   0.87378142  0.61235528  0.12311920
   0.11387846  0.61740449  0.06268712
   0.00000000  0.00000000  0.00835000
   0.50000000  0.50000000  0.00835000
   0.69870000  0.19870000  0.75040000
   0.30130000  0.80130000  0.75040000
   0.80130000  0.69870000  0.75040000
   0.19870000  0.30130000  0.75040000
   0.00000000  0.00000000  0.50970000
   0.50000000  0.50000000  0.50970000
   0.73403000  0.23403000  0.24900000
   0.26597000  0.76597000  0.24900000
   0.76597000  0.73403000  0.24900000
   0.23403000  0.26597000  0.24900000
   0.57374880  0.93439018  0.52413919
   0.45221628  0.03540088  0.37717625
   0.07458495  0.43420619  0.52702518
   0.95841384  0.52391400  0.37837143
   0.60168595  0.93174505  0.98351600
   0.37896166  0.03737634  0.04422460
   0.08188326  0.43288301  0.96346990
   0.89776891  0.53068108  0.07030896
   0.00000000  0.00000000  0.25380000
   0.50000000  0.50000000  0.25380000
   0.00000000  0.00000000  0.75370000
   0.50000000  0.50000000  0.75370000
Direct configuration=    12
   0.48160709  0.03140401  0.48029381
   0.98462271  0.52748445  0.48208491
   0.52620475  0.03260550  0.03741063
   0.03526274  0.53149535  0.03246166
   0.49364709  0.96077750  0.32306538
   0.62580126  0.85307310  0.47962128
   0.59209636  0.93987649  0.60521190
   0.37842368  0.11251254  0.34966521
   0.42651761  0.11527564  0.53037448
   0.00337709  0.45223040  0.32132337
   0.12516658  0.35335976  0.48137008
   0.09003070  0.43723367  0.60897953
   0.88803352  0.60446920  0.35619201
   0.92492809  0.61493953  0.52814594
   0.30942783  0.96256871  0.00668280
   0.54971802  0.85344756  0.93579702
   0.71659489  0.94111033  0.98149417
   0.33015171  0.11593451  0.09233998
   0.58884183  0.11502964  0.08370868
   0.81287112  0.45887088  0.04866031
   0.01059125  0.35570496  0.93054177
   0.18907227  0.43958734  0.93399454
   0.87377372  0.61223128  0.12252179
   0.11395964  0.61758401  0.06270552
   0.00000000  0.00000000  0.00835000
   0.50000000  0.50000000  0.00835000
   0.69870000  0.19870000  0.75040000
   0.30130000  0.80130000  0.75040000
   0.80130000  0.69870000  0.75040000
   0.19870000  0.30130000  0.75040000
   0.00000000  0.00000000  0.50970000
   0.50000000  0.50000000  0.50970000
   0.73403000  0.23403000  0.24900000
   0.26597000  0.76597000  0.24900000
   0.76597000  0.73403000  0.24900000
   0.23403000  0.26597000  0.24900000
   0.57370524  0.93428905  0.52472888
   0.45318003  0.03538674  0.37762392
   0.07547952  0.43361909  0.52827897
   0.95998454  0.52224752  0.37902017
   0.60210662  0.93113708  0.98362469
   0.37907449  0.03795907  0.04358369
   0.08303616  0.43224028  0.96368883
   0.89801128  0.52985875  0.06934186
   0.00000000  0.00000000  0.25380000
   0.50000000  0.50000000  0.25380000
   0.00000000  0.00000000  0.75370000
   0.50000000  0.50000000  0.75370000
Direct configuration=    13
   0.48223996  0.03086034  0.48056921
   0.98511074  0.52693696  0.48219197
   0.52594236  0.03209253  0.03697135
   0.03555888  0.53126947  0.03234639
   0.49416498  0.96020605  0.32345120
   0.62581275  0.85299334  0.47966598
   0.59242785  0.93970987  0.60552996
   0.37864755  0.11220627  0.34992146
   0.42641780  0.11546115  0.53076688
   0.00433008  0.45111789  0.32185244
   0.12532902  0.35312111  0.48145838
   0.09059451  0.43678865  0.60969522
   0.88852424  0.60371107  0.35671896
   0.92502455  0.61484797  0.52831828
   0.30956801  0.96225325  0.00642550
   0.54948144  0.85340498  0.93560887
   0.71655488  0.94102741  0.98130760
   0.33034137  0.11575346  0.09211947
   0.58913054  0.11529974  0.08360205
   0.81301403  0.45818337  0.04807843
   0.01052848  0.35572704  0.93050808
   0.18951430  0.43942962  0.93384526
   0.87376897  0.61215495  0.12215407
   0.11400960  0.61769451  0.06271685
   0.00000000  0.00000000  0.00835000
   0.50000000  0.50000000  0.00835000
   0.69870000  0.19870000  0.75040000
   0.30130000  0.80130000  0.75040000
   0.80130000  0.69870000  0.75040000
   0.19870000  0.30130000  0.75040000
   0.00000000  0.00000000  0.50970000
   0.50000000  0.50000000  0.50970000
   0.73403000  0.23403000  0.24900000
   0.26597000  0.76597000  0.24900000
   0.76597000  0.73403000  0.24900000
   0.23403000  0.26597000  0.24900000
   0.57367844  0.93422679  0.52509185
   0.45377325  0.03537804  0.37789947
   0.07603017  0.43325771  0.52905072
   0.96095136  0.52122174  0.37941949
   0.60236556  0.93076286  0.98369159
   0.37914394  0.03831777  0.04318919
   0.08374581  0.43184465  0.96382360
   0.89816047  0.52935258  0.06874657
   0.00000000  0.00000000  0.25380000
   0.50000000  0.50000000  0.25380000
   0.00000000  0.00000000  0.75370000
   0.50000000  0.50000000  0.75370000
Direct configuration=    14
   0.48264490  0.03072195  0.48091496
   0.98575536  0.52624647  0.48239647
   0.52594168  0.03174578  0.03670493
   0.03607532  0.53088444  0.03219580
   0.49480523  0.95960306  0.32400996
   0.62567534  0.85322868  0.48010870
   0.59288365  0.93936250  0.60580180
   0.37882548  0.11196656  0.35013175
   0.42652009  0.11542414  0.53117952
   0.00535960  0.45005840  0.32290960
   0.12559786  0.35294897  0.48213402
   0.09145150  0.43602606  0.61051195
   0.88913956  0.60257796  0.35679697
   0.92551767  0.61425294  0.52840391
   0.30991959  0.96216387  0.00620563
   0.54954441  0.85352156  0.93552030
   0.71660730  0.94076294  0.98102204
   0.33043988  0.11569207  0.09186652
   0.58942346  0.11550444  0.08334677
   0.81339511  0.45739574  0.04733166
   0.01101166  0.35594513  0.93053359
   0.18999334  0.43908568  0.93366590
   0.87334058  0.61201321  0.12175665
   0.11375047  0.61748598  0.06261737
   0.00000000  0.00000000  0.00835000
   0.50000000  0.50000000  0.00835000
   0.69870000  0.19870000  0.75040000
   0.30130000  0.80130000  0.75040000
   0.80130000  0.69870000  0.75040000
   0.19870000  0.30130000  0.75040000
   0.00000000  0.00000000  0.50970000
   0.50000000  0.50000000  0.50970000
   0.73403000  0.23403000  0.24900000
   0.26597000  0.76597000  0.24900000
   0.76597000  0.73403000  0.24900000
   0.23403000  0.26597000  0.24900000
   0.57408830  0.93359728  0.52550525
   0.45451648  0.03513134  0.37825614
   0.07659894  0.43284086  0.52962268
   0.96142269  0.52073702  0.37967165
   0.60228742  0.93010763  0.98348078
   0.37889561  0.03826764  0.04248960
   0.08441605  0.43126122  0.96385986
   0.89839776  0.52925806  0.06825542
   0.00000000  0.00000000  0.25380000
   0.50000000  0.50000000  0.25380000
   0.00000000  0.00000000  0.75370000
   0.50000000  0.50000000  0.75370000
Direct configuration=    15
   0.48362176  0.03038808  0.48174906
   0.98731049  0.52458071  0.48288979
   0.52594003  0.03090926  0.03606222
   0.03732121  0.52995557  0.03183250
   0.49634980  0.95814837  0.32535792
   0.62534386  0.85379641  0.48117672
   0.59398322  0.93852448  0.60645759
   0.37925472  0.11138828  0.35063906
   0.42676686  0.11533486  0.53217501
   0.00784324  0.44750246  0.32545991
   0.12624643  0.35253370  0.48376396
   0.09351891  0.43418635  0.61248224
   0.89062398  0.59984443  0.35698515
   0.92670727  0.61281749  0.52861047
   0.31076776  0.96194825  0.00567521
   0.54969633  0.85380282  0.93530662
   0.71673375  0.94012492  0.98033313
   0.33067752  0.11554399  0.09125631
   0.59013011  0.11599829  0.08273093
   0.81431442  0.45549562  0.04553012
   0.01217732  0.35647126  0.93059510
   0.19114900  0.43825595  0.93323320
   0.87230712  0.61167126  0.12079792
   0.11312532  0.61698292  0.06237739
   0.00000000  0.00000000  0.00835000
   0.50000000  0.50000000  0.00835000
   0.69870000  0.19870000  0.75040000
   0.30130000  0.80130000  0.75040000
   0.80130000  0.69870000  0.75040000
   0.19870000  0.30130000  0.75040000
   0.00000000  0.00000000  0.50970000
   0.50000000  0.50000000  0.50970000
   0.73403000  0.23403000  0.24900000
   0.26597000  0.76597000  0.24900000
   0.76597000  0.73403000  0.24900000
   0.23403000  0.26597000  0.24900000
   0.57507705  0.93207863  0.52650254
   0.45630948  0.03453619  0.37911657
   0.07797107  0.43183526  0.53100248
   0.96255975  0.51956768  0.38027995
   0.60209892  0.92852694  0.98297222
   0.37829655  0.03814671  0.04080189
   0.08603296  0.42985372  0.96394733
   0.89897020  0.52903005  0.06707054
   0.00000000  0.00000000  0.25380000
   0.50000000  0.50000000  0.25380000
   0.00000000  0.00000000  0.75370000
   0.50000000  0.50000000  0.75370000
Direct configuration=    16
   0.48394142  0.03032465  0.48219573
   0.98773950  0.52420072  0.48324398
   0.52603995  0.03082088  0.03594388
   0.03758012  0.52960100  0.03172627
   0.49687449  0.95769637  0.32583776
   0.62546444  0.85367591  0.48146338
   0.59440745  0.93817021  0.60671626
   0.37954397  0.11106629  0.35082301
   0.42700577  0.11512345  0.53244233
   0.00864302  0.44669940  0.32634572
   0.12662689  0.35223140  0.48442006
   0.09420745  0.43353372  0.61298052
   0.89092735  0.59907806  0.35678428
   0.92725723  0.61214810  0.52864112
   0.31084654  0.96170707  0.00539702
   0.54967228  0.85363938  0.93508864
   0.71671187  0.93981466  0.98007456
   0.33073013  0.11543817  0.09098002
   0.59021122  0.11593179  0.08239513
   0.81487351  0.45504850  0.04496648
   0.01262626  0.35652343  0.93055469
   0.19155390  0.43791571  0.93308598
   0.87186170  0.61146548  0.12043249
   0.11295492  0.61678172  0.06228318
   0.00000000  0.00000000  0.00835000
   0.50000000  0.50000000  0.00835000
   0.69870000  0.19870000  0.75040000
   0.30130000  0.80130000  0.75040000
   0.80130000  0.69870000  0.75040000
   0.19870000  0.30130000  0.75040000
   0.00000000  0.00000000  0.50970000
   0.50000000  0.50000000  0.50970000
   0.73403000  0.23403000  0.24900000
   0.26597000  0.76597000  0.24900000
   0.76597000  0.73403000  0.24900000
   0.23403000  0.26597000  0.24900000
   0.57507727  0.93202060  0.52689418
   0.45671239  0.03444619  0.37932827
   0.07830998  0.43165017  0.53143897
   0.96298446  0.51911854  0.38052848
   0.60216517  0.92835936  0.98295014
   0.37842048  0.03833123  0.04038564
   0.08661270  0.42953178  0.96404018
   0.89901114  0.52896681  0.06670531
   0.00000000  0.00000000  0.25380000
   0.50000000  0.50000000  0.25380000
   0.00000000  0.00000000  0.75370000
   0.50000000  0.50000000  0.75370000
Direct configuration=    17
   0.48490039  0.03013436  0.48353573
   0.98902655  0.52306076  0.48430655
   0.52633972  0.03055573  0.03558885