cubic-FASnI3                            
           1
     6.307400    0.000000    0.000000
     0.000000    6.307400    0.000000
     0.000000    0.000000    6.307400
   C    H    I    N    Sn
     1     5     3     2     1
Direct configuration=     1
   0.94853461  0.02293743  0.03673735
   0.03801771  0.96402578  0.72805231
   0.25232648  0.90706617  0.06416545
   0.12307854  0.97524003  0.30087154
   0.78297077  0.06776438  0.76562723
   0.81468361  0.08259545  0.13218080
   0.00000000  0.50000000  0.50000000
   0.50000000  0.00000000  0.50000000
   0.50000000  0.50000000  0.00000000
   0.12065678  0.96706821  0.13788838
   0.92267762  0.01350102  0.83126441
   0.50000000  0.50000000  0.50000000
Direct configuration=     2
   0.94635336  0.02389717  0.03736029
   0.03571519  0.96468285  0.73156313
   0.24941414  0.90772336  0.06585973
   0.12398909  0.97482296  0.29385166
   0.78776142  0.06527046  0.76750061
   0.81801206  0.08118245  0.12964668
   0.00000000  0.50000000  0.50000000
   0.50000000  0.00000000  0.50000000
   0.50000000  0.50000000  0.00000000
   0.12062662  0.96670284  0.14153193
   0.92154499  0.01565768  0.82905731
   0.50000000  0.50000000  0.50000000
Direct configuration=     3
   0.94785925  0.02323459  0.03693023
   0.03730479  0.96422922  0.72913934
   0.25142476  0.90726965  0.06469004
   0.12336047  0.97511089  0.29869803
   0.78445406  0.06699220  0.76620727
   0.81571417  0.08215795  0.13139618
   0.00000000  0.50000000  0.50000000
   0.50000000  0.00000000  0.50000000
   0.50000000  0.50000000  0.00000000
   0.12064744  0.96695508  0.13901651
   0.92232694  0.01416877  0.83058104
   0.50000000  0.50000000  0.50000000
Direct configuration=     4
   0.94881932  0.02293016  0.03603241
   0.03578514  0.96448332  0.73202168
   0.24859589  0.90775781  0.06649993
   0.12439498  0.97491381  0.29559601
   0.78696947  0.06529134  0.76684832
   0.81770826  0.08134694  0.12964655
   0.00000000  0.50000000  0.50000000
   0.50000000  0.00000000  0.50000000
   0.50000000  0.50000000  0.00000000
   0.11782469  0.96711816  0.13642718
   0.92358553  0.01597264  0.83308738
   0.50000000  0.50000000  0.50000000
Direct configuration=     5
   0.94833584  0.02308347  0.03648454
   0.03655042  0.96435536  0.73057016
   0.25002048  0.90751198  0.06558849
   0.12387401  0.97501306  0.29715815
   0.78570274  0.06614788  0.76652549
   0.81670406  0.08175536  0.13052765
   0.00000000  0.50000000  0.50000000
   0.50000000  0.00000000  0.50000000
   0.50000000  0.50000000  0.00000000
   0.11924620  0.96703604  0.13773114
   0.92295171  0.01506423  0.83182521
   0.50000000  0.50000000  0.50000000
Direct configuration=     6
   0.94747719  0.02362037  0.03665514
   0.03696243  0.96394029  0.73138056
   0.24945037  0.90721096  0.06554278
   0.12413106  0.97515461  0.29700053
   0.78545306  0.06580300  0.76634310
   0.81678557  0.08178198  0.13024398
   0.00000000  0.50000000  0.50000000
   0.50000000  0.00000000  0.50000000
   0.50000000  0.50000000  0.00000000
   0.11947549  0.96646578  0.13698383
   0.92407601  0.01578161  0.83193944
   0.50000000  0.50000000  0.50000000
Direct configuration=     7
   0.94793234  0.02333577  0.03656471
   0.03674403  0.96416031  0.73095099
   0.24975257  0.90737052  0.06556701
   0.12399480  0.97507957  0.29708408
   0.78558541  0.06598581  0.76643978
   0.81674236  0.08176787  0.13039435
   0.00000000  0.50000000  0.50000000
   0.50000000  0.00000000  0.50000000
   0.50000000  0.50000000  0.00000000
   0.11935395  0.96676806  0.13737996
   0.92348004  0.01540134  0.83187889
   0.50000000  0.50000000  0.50000000
Direct configuration=     8
   0.94782110  0.02353959  0.03663913
   0.03725398  0.96377161  0.73141826
   0.24960381  0.90701178  0.06530191
   0.12418312  0.97517517  0.29688180
   0.78553376  0.06568204  0.76632786
   0.81655734  0.08190364  0.13035756
   0.00000000  0.50000000  0.50000000
   0.50000000  0.00000000  0.50000000
   0.50000000  0.50000000  0.00000000
   0.11914032  0.96653388  0.13725294
   0.92380867  0.01609489  0.83183345
   0.50000000  0.50000000  0.50000000
Direct configuration=     9
   0.94748736  0.02415103  0.03686239
   0.03878382  0.96260552  0.73282009
   0.24915751  0.90593554  0.06450663
   0.12474809  0.97546195  0.29627497
   0.78537880  0.06477073  0.76599209
   0.81600228  0.08231097  0.13024721
   0.00000000  0.50000000  0.50000000
   0.50000000  0.00000000  0.50000000
   0.50000000  0.50000000  0.00000000
   0.11849943  0.96583135  0.13687187
   0.92479456  0.01817551  0.83169711
   0.50000000  0.50000000  0.50000000
Direct configuration=    10
   0.94681990  0.02537392  0.03730891
   0.04184350  0.96027334  0.73562374
   0.24826491  0.90378307  0.06291606
   0.12587802  0.97603552  0.29506131
   0.78506890  0.06294810  0.76532054
   0.81489215  0.08312562  0.13002652
   0.00000000  0.50000000  0.50000000
   0.50000000  0.00000000  0.50000000
   0.50000000  0.50000000  0.00000000
   0.11721765  0.96442629  0.13610973
   0.92676632  0.02233677  0.83142445
   0.50000000  0.50000000  0.50000000
Direct configuration=    11
   0.94727996  0.02453103  0.03700114
   0.03973459  0.96188082  0.73369130
   0.24888014  0.90526668  0.06401238
   0.12509921  0.97564018  0.29589784
   0.78528250  0.06420436  0.76578341
   0.81565731  0.08256411  0.13017863
   0.00000000  0.50000000  0.50000000
   0.50000000  0.00000000  0.50000000
   0.50000000  0.50000000  0.00000000
   0.11810113  0.96539474  0.13663504
   0.92540726  0.01946858  0.83161239
   0.50000000  0.50000000  0.50000000
Direct configuration=    12
   0.94734947  0.02472061  0.03666039
   0.04009142  0.96156317  0.73441257
   0.24843684  0.90488287  0.06369006
   0.12532802  0.97574149  0.29572189
   0.78547576  0.06375549  0.76558775
   0.81529644  0.08284445  0.13027233
   0.00000000  0.50000000  0.50000000
   0.50000000  0.00000000  0.50000000
   0.50000000  0.50000000  0.00000000
   0.11813599  0.96500215  0.13666764
   0.92576440  0.02020107  0.83145508
   0.50000000  0.50000000  0.50000000
Direct configuration=    13
   0.94739894  0.02485556  0.03641783
   0.04034543  0.96133705  0.73492601
   0.24812128  0.90460965  0.06346061
   0.12549090  0.97581361  0.29559664
   0.78561332  0.06343595  0.76544846
   0.81503955  0.08304400  0.13033902
   0.00000000  0.50000000  0.50000000
   0.50000000  0.00000000  0.50000000
   0.50000000  0.50000000  0.00000000
   0.11816081  0.96472268  0.13669085
   0.92601863  0.02072250  0.83134309
   0.50000000  0.50000000  0.50000000
Direct configuration=    14
   0.94753411  0.02500067  0.03651172
   0.04036519  0.96127767  0.73535673
   0.24777397  0.90434511  0.06322577
   0.12563369  0.97585779  0.29569421
   0.78587307  0.06313567  0.76517660
   0.81500312  0.08321002  0.13029927
   0.00000000  0.50000000  0.50000000
   0.50000000  0.00000000  0.50000000
   0.50000000  0.50000000  0.00000000
   0.11802455  0.96454446  0.13654836
   0.92629752  0.02096782  0.83114087
   0.50000000  0.50000000  0.50000000
Direct configuration=    15
   0.94759312  0.02506402  0.03655271
   0.04037381  0.96125175  0.73554476
   0.24762235  0.90422962  0.06312325
   0.12569603  0.97587708  0.29573680
   0.78598647  0.06300458  0.76505791
   0.81498721  0.08328250  0.13028191
   0.00000000  0.50000000  0.50000000
   0.50000000  0.00000000  0.50000000
   0.50000000  0.50000000  0.00000000
   0.11796507  0.96446667  0.13648615
   0.92641928  0.02107491  0.83105259
   0.50000000  0.50000000  0.50000000
Direct configuration=    16
   0.94758119  0.02527811  0.03656613
   0.04045740  0.96118298  0.73578592
   0.24727395  0.90391069  0.06283126
   0.12584359  0.97589079  0.29580730
   0.78630608  0.06270262  0.76465303
   0.81511990  0.08344458  0.13015777
   0.00000000  0.50000000  0.50000000
   0.50000000  0.00000000  0.50000000
   0.50000000  0.50000000  0.00000000
   0.11780829  0.96432942  0.13653832
   0.92661577  0.02126312  0.83118275
   0.50000000  0.50000000  0.50000000
Direct configuration=    17
   0.94754540  0.02592036  0.03660640
   0.04070816  0.96097669  0.73650937
   0.24622875  0.90295390  0.06195530
   0.12628628  0.97593193  0.29601881
   0.78726491  0.06179673  0.76343839
   0.81551794  0.08393081  0.12978533
   0.00000000  0.50000000  0.50000000
   0.50000000  0.00000000  0.50000000
   0.50000000  0.50000000  0.00000000
   0.11733796  0.96391770  0.13669481
   0.92720527  0.02182774  0.83157321
   0.50000000  0.50000000  0.50000000
Direct configuration=    18
   0.94762540  0.02610730  0.03682880
   0.04112465  0.96078699  0.73659014
   0.24560059  0.90248212  0.06164932
   0.12648265  0.97589715  0.29593324
   0.78769373  0.06145043  0.76281701
   0.81557411  0.08437372  0.12973441
   0.00000000  0.50000000  0.50000000
   0.50000000  0.00000000  0.50000000
   0.50000000  0.50000000  0.00000000
   0.11732596  0.96372102  0.13696683
   0.92725000  0.02199897  0.83152493
   0.50000000  0.50000000  0.50000000
Direct configuration=    19
   0.94765362  0.02617325  0.03690726
   0.04127158  0.96072006  0.73661863
   0.24537898  0.90231568  0.06154137
   0.12655192  0.97588488  0.29590305
   0.78784501  0.06132826  0.76259779
   0.81559392  0.08452998  0.12971645
   0.00000000  0.50000000  0.50000000
   0.50000000  0.00000000  0.50000000
   0.50000000  0.50000000  0.00000000
   0.11732172  0.96365163  0.13706280
   0.92726579  0.02205938  0.83150789
   0.50000000  0.50000000  0.50000000
Direct configuration=    20
   0.94772929  0.02625674  0.03699247
   0.04167154  0.96057754  0.73666818
   0.24483322  0.90184005  0.06135340
   0.12674627  0.97583084  0.29595831
   0.78804757  0.06113430  0.76200647
   0.81555257  0.08507429  0.12978321
   0.00000000  0.50000000  0.50000000
   0.50000000  0.00000000  0.50000000
   0.50000000  0.50000000  0.00000000
   0.11726815  0.96352288  0.13707664
   0.92760022  0.02197738  0.83147219
   0.50000000  0.50000000  0.50000000
Direct configuration=    21
   0.94782846  0.02636616  0.03710416
   0.04219575  0.96039073  0.73673312
   0.24411793  0.90121665  0.06110703
   0.12700098  0.97576002  0.29603073
   0.78831305  0.06088010  0.76123146
   0.81549836  0.08578770  0.12987070
   0.00000000  0.50000000  0.50000000
   0.50000000  0.00000000  0.50000000
   0.50000000  0.50000000  0.00000000
   0.11719794  0.96335414  0.13709479
   0.92803854  0.02186991  0.83142540
   0.50000000  0.50000000  0.50000000
Direct configuration=    22
   0.94759486  0.02652045  0.03692196
   0.04273722  0.96023050  0.73683390
   0.24369194  0.90045652  0.06089081
   0.12726477  0.97565755  0.29614286
   0.78877021  0.06066321  0.76071653
   0.81557317  0.08651800  0.12990369
   0.00000000  0.50000000  0.50000000
   0.50000000  0.00000000  0.50000000
   0.50000000  0.50000000  0.00000000
   0.11698445  0.96330592  0.13714942
   0.92832953  0.02164262  0.83127561
   0.50000000  0.50000000  0.50000000
Direct configuration=    23
   0.94719508  0.02678450  0.03661015
   0.04366388  0.95995627  0.73700636
   0.24296292  0.89915564  0.06052076
   0.12771620  0.97548220  0.29633475
   0.78955259  0.06029203  0.75983528
   0.81570119  0.08776781  0.12996015
   0.00000000  0.50000000  0.50000000
   0.50000000  0.00000000  0.50000000
   0.50000000  0.50000000  0.00000000
   0.11661910  0.96322341  0.13724289
   0.92882751  0.02125364  0.83101925
   0.50000000  0.50000000  0.50000000
Direct configuration=    24
   0.94712452  0.02689448  0.03663585
   0.04420320  0.95979581  0.73715370
   0.24249779  0.89844869  0.06047734
   0.12790969  0.97538792  0.29635399
   0.79012411  0.06010333  0.75947554
   0.81585168  0.08844886  0.12983099
   0.00000000  0.50000000  0.50000000
   0.50000000  0.00000000  0.50000000
   0.50000000  0.50000000  0.00000000
   0.11639599  0.96317392  0.13710581
   0.92887995  0.02102046  0.83071989
   0.50000000  0.50000000  0.50000000
Direct configuration=    25
   0.94708985  0.02694853  0.03664848
   0.04446822  0.95971696  0.73722611
   0.24226923  0.89810129  0.06045600
   0.12800477  0.97534159  0.29636345
   0.79040496  0.06001060  0.75929876
   0.81592563  0.08878353  0.12976752
   0.00000000  0.50000000  0.50000000
   0.50000000  0.00000000  0.50000000
   0.50000000  0.50000000  0.00000000
   0.11628634  0.96314960  0.13703845
   0.92890572  0.02090587  0.83057278
   0.50000000  0.50000000  0.50000000
Direct configuration=    26
   0.94711607  0.02703009  0.03651151
   0.04490344  0.95958011  0.73741833
   0.24178697  0.89750996  0.06056889
   0.12808237  0.97526853  0.29616650
   0.79080602  0.05993358  0.75899200
   0.81610936  0.08936072  0.12949591
   0.00000000  0.50000000  0.50000000
   0.50000000  0.00000000  0.50000000
   0.50000000  0.50000000  0.00000000
   0.11620865  0.96305256  0.13693925
   0.92903828  0.02061995  0.83055805
   0.50000000  0.50000000  0.50000000
Direct configuration=    27
   0.94719471  0.02727476  0.03610058
   0.04620910  0.95916953  0.73799500
   0.24034018  0.89573598  0.06090754
   0.12831518  0.97504938  0.29557566
   0.79200921  0.05970251  0.75807174
   0.81666056  0.09109231  0.12868111
   0.00000000  0.50000000  0.50000000
   0.50000000  0.00000000  0.50000000
   0.50000000  0.50000000  0.00000000
   0.11597558  0.96276145  0.13664166
   0.92943596  0.01976220  0.83051388
   0.50000000  0.50000000  0.50000000
Direct configuration=    28
   0.94731736  0.02738764  0.03602334
   0.04662677  0.95901046  0.73830486
   0.23999720  0.89488123  0.06095167
   0.12830016  0.97501012  0.29531504
   0.79233206  0.05971053  0.75767048
   0.81691175  0.09176244  0.12822953
   0.00000000  0.50000000  0.50000000
   0.50000000  0.00000000  0.50000000
   0.50000000  0.50000000  0.00000000
   0.11574912  0.96270183  0.13667491
   0.92979501  0.01931871  0.83040126
   0.50000000  0.50000000  0.50000000
Direct configuration=    29
   0.94740409  0.02746746  0.03596872
   0.04692212  0.95889798  0.73852396
   0.23975467  0.89427682  0.06098288
   0.12828954  0.97498235  0.29513075
   0.79256035  0.05971619  0.75738673
   0.81708937  0.09223629  0.12791021
   0.00000000  0.50000000  0.50000000
   0.50000000  0.00000000  0.50000000
   0.50000000  0.50000000  0.00000000
   0.11558899  0.96265968  0.13669842
   0.93004889  0.01900512  0.83032163
   0.50000000  0.50000000  0.50000000
Direct configuration=    30
   0.94753334  0.02762609  0.03581352
   0.04743868  0.95861638  0.73876992
   0.23948537  0.89330446  0.06102564
   0.12815217  0.97503107  0.29509691
   0.79295418  0.05976025  0.75701877
   0.81733740  0.09293873  0.12733191
   0.00000000  0.50000000  0.50000000
   0.50000000  0.00000000  0.50000000
   0.50000000  0.50000000  0.00000000
   0.11555388  0.96246637  0.13666420
   0.93020086  0.01864300  0.83017911
   0.50000000  0.50000000  0.50000000
Direct configuration=    31
   0.94792112  0.02810199  0.03534793
   0.04898836  0.95777158  0.73950780
   0.23867746  0.89038737  0.06115391
   0.12774003  0.97517724  0.29499537
   0.79413568  0.05989241  0.75591486
   0.81808149  0.09504605  0.12559698
   0.00000000  0.50000000  0.50000000
   0.50000000  0.00000000  0.50000000
   0.50000000  0.50000000  0.00000000
   0.11544855  0.96188643  0.13656154
   0.93065678  0.01755664  0.82975157
   0.50000000  0.50000000  0.50000000
Direct configuration=    32
   0.94869667  0.02905379  0.03441676
   0.05208771  0.95608197  0.74098356
   0.23706164  0.88455319  0.06141045
   0.12691577  0.97546957  0.29479230
   0.79649868  0.06015672  0.75370706
   0.81956967  0.09926069  0.12212714
   0.00000000  0.50000000  0.50000000
   0.50000000  0.00000000  0.50000000
   0.50000000  0.50000000  0.00000000
   0.11523789  0.96072656  0.13635623
   0.93156860  0.01538392  0.82889647
   0.50000000  0.50000000  0.50000000
Direct configuration=    33
   0.94820568  0.02845121  0.03500628
   0.05012553  0.95715165  0.74004926
   0.23808460  0.88824677  0.06124804
   0.12743761  0.97528449  0.29492087
   0.79500268  0.05998939  0.75510481
   0.81862751  0.09659243  0.12432388
   0.00000000  0.50000000  0.50000000
   0.50000000  0.00000000  0.50000000
   0.50000000  0.50000000  0.00000000
   0.11537126  0.96146087  0.13648621
   0.93099133  0.01675945  0.82943783
   0.50000000  0.50000000  0.50000000
Direct configuration=    34
   0.94853577  0.02850731  0.03457850
   0.05069552  0.95671616  0.74022372
   0.23760297  0.88714006  0.06145727
   0.12723094  0.97539908  0.29501373
   0.79556149  0.06004439  0.75466567
   0.81881550  0.09751556  0.12373437
   0.00000000  0.50000000  0.50000000
   0.50000000  0.00000000  0.50000000
   0.50000000  0.50000000  0.00000000
   0.11550338  0.96109745  0.13630712
   0.93117462  0.01643355  0.82929940
   0.50000000  0.50000000  0.50000000
Direct configuration=    35
   0.94872958  0.02854024  0.03432732
   0.05103019  0.95646045  0.74032616
   0.23732018  0.88649025  0.06158013
   0.12710960  0.97546635  0.29506826
   0.79588961  0.06007669  0.75440782
   0.81892588  0.09805759  0.12338823
   0.00000000  0.50000000  0.50000000
   0.50000000  0.00000000  0.50000000
   0.50000000  0.50000000  0.00000000
   0.11558095  0.96088406  0.13620197
   0.93128224  0.01624220  0.82921813
   0.50000000  0.50000000  0.50000000
Direct configuration=    36
   0.94894925  0.02851531  0.03418500
   0.05117524  0.95615070  0.74030370
   0.23706101  0.88586941  0.06178012
   0.12696596  0.97555920  0.29504239
   0.79623778  0.06012275  0.75415356
   0.81908262  0.09854802  0.12311289
   0.00000000  0.50000000  0.50000000
   0.50000000  0.00000000  0.50000000
   0.50000000  0.50000000  0.00000000
   0.11558743  0.96070628  0.13624120
   0.93157341  0.01610844  0.82892509
   0.50000000  0.50000000  0.50000000
Direct configuration=    37
   0.94951891  0.02845066  0.03381593
   0.05155139  0.95534744  0.74024546
   0.23638891  0.88425940  0.06229876
   0.12659347  0.97579996  0.29497529
   0.79714068  0.06024220  0.75349418
   0.81948909  0.09981987  0.12239887
   0.00000000  0.50000000  0.50000000
   0.50000000  0.00000000  0.50000000
   0.50000000  0.50000000  0.00000000
   0.11560423  0.96024523  0.13634293
   0.93232852  0.01576157  0.82816515
   0.50000000  0.50000000  0.50000000
Direct configuration=    38
   0.94959421  0.02845842  0.03370810
   0.05164897  0.95512387  0.74016156
   0.23626455  0.88388274  0.06242752
   0.12650978  0.97585892  0.29496256
   0.79735169  0.06027165  0.75333690
   0.81963459  0.10007642  0.12222193
   0.00000000  0.50000000  0.50000000
   0.50000000  0.00000000  0.50000000
   0.50000000  0.50000000  0.00000000
   0.11556832  0.96015349  0.13638378
   0.93250181  0.01571990  0.82807027
   0.50000000  0.50000000  0.50000000
Direct configuration=    39
   0.94982013  0.02848170  0.03338459
   0.05194168  0.95445316  0.73990985
   0.23589150  0.88275275  0.06281377
   0.12625869  0.97603578  0.29492435
   0.79798472  0.06036000  0.75286505
   0.82007109  0.10084607  0.12169111
   0.00000000  0.50000000  0.50000000
   0.50000000  0.00000000  0.50000000
   0.50000000  0.50000000  0.00000000
   0.11546061  0.95987825  0.13650631
   0.93302169  0.01559488  0.82778561
   0.50000000  0.50000000  0.50000000
Direct configuration=    40
   0.95027196  0.02852826  0.03273759
   0.05252710  0.95311173  0.73940643
   0.23514539  0.88049276  0.06358628
   0.12575652  0.97638950  0.29484794
   0.79925077  0.06053669  0.75192136
   0.82094409  0.10238537  0.12062947
   0.00000000  0.50000000  0.50000000
   0.50000000  0.00000000  0.50000000
   0.50000000  0.50000000  0.00000000
   0.11524517  0.95932777  0.13675138
   0.93406144  0.01534483  0.82721631
   0.50000000  0.50000000  0.50000000
Direct configuration=    41
   0.95117562  0.02862138  0.03144358
   0.05369796  0.95042889  0.73839960
   0.23365317  0.87597280  0.06513130
   0.12475219  0.97709695  0.29469512
   0.80178289  0.06089008  0.75003398
   0.82269009  0.10546398  0.11850619
   0.00000000  0.50000000  0.50000000
   0.50000000  0.00000000  0.50000000
   0.50000000  0.50000000  0.00000000
   0.11481430  0.95822681  0.13724152
   0.93614095  0.01484474  0.82607769
   0.50000000  0.50000000  0.50000000
Direct configuration=    42
   0.95298293  0.02880762  0.02885556
   0.05603966  0.94506320  0.73638593
   0.23066873  0.86693287  0.06822133
   0.12274352  0.97851184  0.29438949
   0.80684712  0.06159687  0.74625921
   0.82618210  0.11162119  0.11425963
   0.00000000  0.50000000  0.50000000
   0.50000000  0.00000000  0.50000000
   0.50000000  0.50000000  0.00000000
   0.11395256  0.95602489  0.13822179
   0.94029997  0.01384456  0.82380045
   0.50000000  0.50000000  0.50000000
Direct configuration=    43
   0.95183198  0.02868902  0.03050368
   0.05454840  0.94848022  0.73766829
   0.23256930  0.87268974  0.06625351
   0.12402269  0.97761080  0.29458413
   0.80362208  0.06114677  0.74866308
   0.82395829  0.10770011  0.11696395
   0.00000000  0.50000000  0.50000000
   0.50000000  0.00000000  0.50000000
   0.50000000  0.50000000  0.00000000
   0.11450134  0.95742713  0.13759752
   0.93765139  0.01448150  0.82525066
   0.50000000  0.50000000  0.50000000
Direct configuration=    44
   0.95194019  0.02871965  0.03038733
   0.05468721  0.94815612  0.73754357
   0.23238407  0.87217560  0.06645406
   0.12390770  0.97769727  0.29460322
   0.80393080  0.06118466  0.74844763
   0.82418282  0.10804232  0.11670031
   0.00000000  0.50000000  0.50000000
   0.50000000  0.00000000  0.50000000
   0.50000000  0.50000000  0.00000000
   0.11444095  0.95728279  0.13758942
   0.93787564  0.01443068  0.82510523
   0.50000000  0.50000000  0.50000000
Direct configuration=    45
   0.95226479  0.02881153  0.03003827
   0.05510365  0.94718383  0.73716939
   0.23182835  0.87063319  0.06705570
   0.12356271  0.97795667  0.29466051
   0.80485697  0.06129832  0.74780128
   0.82485638  0.10906896  0.11590939
   0.00000000  0.50000000  0.50000000
   0.50000000  0.00000000  0.50000000
   0.50000000  0.50000000  0.00000000
   0.11425979  0.95684977  0.13756510
   0.93854839  0.01427820  0.82466896
   0.50000000  0.50000000  0.50000000
Direct configuration=    46
   0.95291401  0.02899529  0.02934016
   0.05593653  0.94523924  0.73642105
   0.23071693  0.86754837  0.06825897
   0.12287274  0.97847548  0.29477508
   0.80670929  0.06152565  0.74650858
   0.82620352  0.11112224  0.11432755
   0.00000000  0.50000000  0.50000000
   0.50000000  0.00000000  0.50000000
   0.50000000  0.50000000  0.00000000
   0.11389747  0.95598372  0.13751646
   0.93989387  0.01397325  0.82379641
   0.50000000  0.50000000  0.50000000
Direct configuration=    47
   0.95421244  0.02936281  0.02794393
   0.05760228  0.94135006  0.73492436
   0.22849407  0.86137872  0.07066553
   0.12149279  0.97951309  0.29500423
   0.81041395  0.06198030  0.74392317
   0.82889779  0.11522881  0.11116388
   0.00000000  0.50000000  0.50000000
   0.50000000  0.00000000  0.50000000
   0.50000000  0.50000000  0.00000000
   0.11317283  0.95425163  0.13741919
   0.94258484  0.01336335  0.82205132
   0.50000000  0.50000000  0.50000000
Direct configuration=    48
   0.95447588  0.02943738  0.02766065
   0.05794025  0.94056098  0.73462069
   0.22804308  0.86012696  0.07115379
   0.12121281  0.97972361  0.29505072
   0.81116559  0.06207255  0.74339861
   0.82944443  0.11606199  0.11052200
   0.00000000  0.50000000  0.50000000
   0.50000000  0.00000000  0.50000000
   0.50000000  0.50000000  0.00000000
   0.11302581  0.95390021  0.13739946
   0.94313081  0.01323961  0.82169726
   0.50000000  0.50000000  0.50000000
Direct configuration=    49
   0.95467311  0.02958294  0.02749025
   0.05798348  0.94024311  0.73460041
   0.22773581  0.85975677  0.07146903
   0.12111706  0.97977762  0.29504134
   0.81151982  0.06210561  0.74319948
   0.82976309  0.11630724  0.11018439
   0.00000000  0.50000000  0.50000000
   0.50000000  0.00000000  0.50000000
   0.50000000  0.50000000  0.00000000
   0.11296783  0.95364061  0.13735352
   0.94333111  0.01315327  0.82148414
   0.50000000  0.50000000  0.50000000
Direct configuration=    50
   0.95526482  0.03001961  0.02697906
   0.05811318  0.93928948  0.73453954
   0.22681400  0.85864619  0.07241473
   0.12082980  0.97993963  0.29501322
   0.81258253  0.06220480  0.74260209
   0.83071906  0.11704301  0.10917155
   0.00000000  0.50000000  0.50000000
   0.50000000  0.00000000  0.50000000
   0.50000000  0.50000000  0.00000000
   0.11279388  0.95286180  0.13721571
   0.94393202  0.01289424  0.82084476
   0.50000000  0.50000000  0.50000000
Direct configuration=    51
   0.95644823  0.03089296  0.02595667
   0.05837258  0.93738223  0.73441782
   0.22497039  0.85642504  0.07430615
   0.12025527  0.98026364  0.29495698
   0.81470793  0.06240319  0.74140731
   0.83263100  0.11851455  0.10714589
   0.00000000  0.50000000  0.50000000
   0.50000000  0.00000000  0.50000000
   0.50000000  0.50000000  0.00000000
   0.11244600  0.95130419  0.13694010
   0.94513382  0.01237620  0.81956602
   0.50000000  0.50000000  0.50000000
Direct configuration=    52
   0.95579006  0.03040723  0.02652528
   0.05822831  0.93844297  0.73448552
   0.22599573  0.85766036  0.07325422
   0.12057480  0.98008344  0.29498826
   0.81352586  0.06229285  0.74207180
   0.83156765  0.11769613  0.10827248
   0.00000000  0.50000000  0.50000000
   0.50000000  0.00000000  0.50000000
   0.50000000  0.50000000  0.00000000
   0.11263948  0.95217047  0.13709338
   0.94446543  0.01266431  0.82027721
   0.50000000  0.50000000  0.50000000
Direct configuration=    53
   0.95620897  0.03058521  0.02612951
   0.05827259  0.93796869  0.73449100
   0.22564161  0.85714932  0.07366470
   0.12046448  0.98010664  0.29486257
   0.81397392  0.06236402  0.74176639
   0.83203199  0.11799959  0.10779246
   0.00000000  0.50000000  0.50000000
   0.50000000  0.00000000  0.50000000
   0.50000000  0.50000000  0.00000000
   0.11235853  0.95192228  0.13720250
   0.94472480  0.01255490  0.82011650
   0.50000000  0.50000000  0.50000000
Direct configuration=    54
   0.95746568  0.03111915  0.02494220
   0.05840545  0.93654585  0.73450743
   0.22457923  0.85561620  0.07489613
   0.12013350  0.98017623  0.29448552
   0.81531809  0.06257752  0.74085016
   0.83342499  0.11890996  0.10635237
   0.00000000  0.50000000  0.50000000
   0.50000000  0.00000000  0.50000000
   0.50000000  0.50000000  0.00000000
   0.11151569  0.95117768  0.13752985
   0.94550292  0.01222666  0.81963437
   0.50000000  0.50000000  0.50000000
Direct configuration=    55
   0.95997911  0.03218703  0.02256757
   0.05867115  0.93370016  0.73454029
   0.22245448  0.85254997  0.07735899
   0.11947156  0.98031542  0.29373141
   0.81800643  0.06300452  0.73901771
   0.83621099  0.12073070  0.10347220
   0.00000000  0.50000000  0.50000000
   0.50000000  0.00000000  0.50000000
   0.50000000  0.50000000  0.00000000
   0.10982999  0.94968848  0.13818455
   0.94705916  0.01157018  0.81867011
   0.50000000  0.50000000  0.50000000
Direct configuration=    56
   0.95821943  0.03143940  0.02423007
   0.05848513  0.93569246  0.73451728
   0.22394204  0.85469667  0.07563471
   0.11993499  0.98021797  0.29425937
   0.81612430  0.06270557  0.74030063
   0.83426048  0.11945598  0.10548864
   0.00000000  0.50000000  0.50000000
   0.50000000  0.00000000  0.50000000
   0.50000000  0.50000000  0.00000000
   0.11101016  0.95073108  0.13772619
   0.94596962  0.01202979  0.81934520
   0.50000000  0.50000000  0.50000000
Direct configuration=    57
   0.95839723  0.03160158  0.02418279
   0.05857104  0.93523472  0.73448962
   0.22386379  0.85432406  0.07584600
   0.11984481  0.98023633  0.29426342
   0.81630605  0.06283671  0.74003217
   0.83461937  0.11967207  0.10511343
   0.00000000  0.50000000  0.50000000
   0.50000000  0.00000000  0.50000000
   0.50000000  0.50000000  0.00000000
   0.11072950  0.95060401  0.13779556
   0.94619469  0.01193949  0.81913102
   0.50000000  0.50000000  0.50000000
Direct configuration=    58
   0.95868505  0.03186414  0.02410624
   0.05871011  0.93449370  0.73444485
   0.22373710  0.85372085  0.07618804
   0.11969880  0.98026607  0.29426999
   0.81660029  0.06304901  0.73959757
   0.83520035  0.12002188  0.10450602
   0.00000000  0.50000000  0.50000000
   0.50000000  0.00000000  0.50000000
   0.50000000  0.50000000  0.00000000
   0.11027513  0.95039830  0.13790787
   0.94655906  0.01179332  0.81878428
   0.50000000  0.50000000  0.50000000
Direct configuration=    59
   0.95873551  0.03200648  0.02388975
   0.05888712  0.93376885  0.73435972
   0.22367014  0.85337998  0.07642508
   0.11955284  0.98031232  0.29442808
   0.81679185  0.06325651  0.73925908
   0.83553739  0.12042337  0.10409291
   0.00000000  0.50000000  0.50000000
   0.50000000  0.00000000  0.50000000
   0.50000000  0.50000000  0.00000000
   0.11018294  0.95007236  0.13798222
   0.94677792  0.01176037  0.81858713
   0.50000000  0.50000000  0.50000000
Direct configuration=    60
   0.95883121  0.03227645  0.02347916
   0.05922285  0.93239407  0.73419827
   0.22354313  0.85273348  0.07687465
   0.11927601  0.98040005  0.29472792
   0.81715515  0.06365005  0.73861710
   0.83617663  0.12118485  0.10330942
   0.00000000  0.50000000  0.50000000
   0.50000000  0.00000000  0.50000000
   0.50000000  0.50000000  0.00000000
   0.11000807  0.94945418  0.13812325
   0.94719302  0.01169787  0.81821321
   0.50000000  0.50000000  0.50000000
Direct configuration=    61
   0.95905451  0.03219586  0.02323317
   0.05929348  0.93167838  0.73418102
   0.22350258  0.85245461  0.07707976
   0.11910833  0.98043154  0.29485237
   0.81743738  0.06383465  0.73832484
   0.83636705  0.12172612  0.10298428
   0.00000000  0.50000000  0.50000000
   0.50000000  0.00000000  0.50000000
   0.50000000  0.50000000  0.00000000
   0.10987535  0.94919112  0.13820441
   0.94739600  0.01166884  0.81792086
   0.50000000  0.50000000  0.50000000
Direct configuration=    62
   0.95972444  0.03195407  0.02249521
   0.05950539  0.92953130  0.73412929
   0.22338093  0.85161800  0.07769509
   0.11860529  0.98052602  0.29522573
   0.81828407  0.06438846  0.73744805