  48  48   0   0
  0.2018876E+02  0.8837900E-09  0.8837900E-09  0.1240660E-08  0.5000000E-15
   1.0000000000000000E-004
  CAR 
 ortho-FASnI3                            
      9.06836491    -20.03151393  301      2.67851651      1.00000000
    -20.032  0.0000E+00  0.0000E+00
    -19.935  0.0000E+00  0.0000E+00
    -19.838  0.0000E+00  0.0000E+00
    -19.741  0.0000E+00  0.0000E+00
    -19.644  0.0000E+00  0.0000E+00
    -19.547  0.0000E+00  0.0000E+00
    -19.450  0.0000E+00  0.0000E+00
    -19.353  0.0000E+00  0.0000E+00
    -19.256  0.0000E+00  0.0000E+00
    -19.159  0.0000E+00  0.0000E+00
    -19.062  0.0000E+00  0.0000E+00
    -18.965  0.8902E-14  0.8635E-15
    -18.868  0.1689E-06  0.1639E-07
    -18.771  0.2504E-02  0.2429E-03
    -18.674  0.6378E-01  0.6430E-02
    -18.577  0.1617E-01  0.7999E-02
    -18.480  0.1387E-04  0.8000E-02
    -18.383  0.1098E-10  0.8000E-02
    -18.286  0.0000E+00  0.8000E-02
    -18.189  0.0000E+00  0.8000E-02
    -18.092  0.0000E+00  0.8000E-02
    -17.995  0.0000E+00  0.8000E-02
    -17.898  0.0000E+00  0.8000E-02
    -17.801  0.0000E+00  0.8000E-02
    -17.704  0.0000E+00  0.8000E-02
    -17.607  0.0000E+00  0.8000E-02
    -17.510  0.0000E+00  0.8000E-02
    -17.413  0.0000E+00  0.8000E-02
    -17.316  0.0000E+00  0.8000E-02
    -17.219  0.0000E+00  0.8000E-02
    -17.122  0.0000E+00  0.8000E-02
    -17.025  0.0000E+00  0.8000E-02
    -16.928  0.0000E+00  0.8000E-02
    -16.831  0.0000E+00  0.8000E-02
    -16.734  0.6109E-11  0.8000E-02
    -16.637  0.9240E-05  0.8001E-02
    -16.540  0.1348E-01  0.9309E-02
    -16.443  0.6552E-01  0.1566E-01
    -16.346  0.3460E-02  0.1600E-01
    -16.249  0.3703E-06  0.1600E-01
    -16.152  0.3339E-13  0.1600E-01
    -16.055  0.0000E+00  0.1600E-01
    -15.958  0.0000E+00  0.1600E-01
    -15.861  0.0000E+00  0.1600E-01
    -15.764  0.0000E+00  0.1600E-01
    -15.667  0.0000E+00  0.1600E-01
    -15.570  0.0000E+00  0.1600E-01
    -15.473  0.0000E+00  0.1600E-01
    -15.376  0.0000E+00  0.1600E-01
    -15.279  0.0000E+00  0.1600E-01
    -15.182  0.0000E+00  0.1600E-01
    -15.085  0.0000E+00  0.1600E-01
    -14.988  0.0000E+00  0.1600E-01
    -14.891  0.0000E+00  0.1600E-01
    -14.794  0.0000E+00  0.1600E-01
    -14.697  0.0000E+00  0.1600E-01
    -14.600  0.0000E+00  0.1600E-01
    -14.503  0.0000E+00  0.1600E-01
    -14.406  0.0000E+00  0.1600E-01
    -14.309  0.0000E+00  0.1600E-01
    -14.212  0.0000E+00  0.1600E-01
    -14.115  0.0000E+00  0.1600E-01
    -14.018  0.0000E+00  0.1600E-01
    -13.921  0.0000E+00  0.1600E-01
    -13.824  0.0000E+00  0.1600E-01
    -13.727  0.0000E+00  0.1600E-01
    -13.630  0.0000E+00  0.1600E-01
    -13.533  0.0000E+00  0.1600E-01
    -13.436  0.0000E+00  0.1600E-01
    -13.339  0.0000E+00  0.1600E-01
    -13.242  0.0000E+00  0.1600E-01
    -13.145  0.0000E+00  0.1600E-01
    -13.048  0.0000E+00  0.1600E-01
    -12.951  0.0000E+00  0.1600E-01
    -12.854  0.0000E+00  0.1600E-01
    -12.757  0.0000E+00  0.1600E-01
    -12.660  0.0000E+00  0.1600E-01
    -12.563  0.0000E+00  0.1600E-01
    -12.466  0.0000E+00  0.1600E-01
    -12.369  0.0000E+00  0.1600E-01
    -12.272  0.0000E+00  0.1600E-01
    -12.175  0.0000E+00  0.1600E-01
    -12.078  0.0000E+00  0.1600E-01
    -11.981  0.0000E+00  0.1600E-01
    -11.884  0.0000E+00  0.1600E-01
    -11.787  0.0000E+00  0.1600E-01
    -11.690  0.0000E+00  0.1600E-01
    -11.593  0.0000E+00  0.1600E-01
    -11.496  0.0000E+00  0.1600E-01
    -11.399  0.0000E+00  0.1600E-01
    -11.302  0.0000E+00  0.1600E-01
    -11.205  0.0000E+00  0.1600E-01
    -11.108  0.0000E+00  0.1600E-01
    -11.011  0.0000E+00  0.1600E-01
    -10.914  0.1034E-13  0.1600E-01
    -10.817  0.4472E-07  0.1600E-01
    -10.720  0.1900E-03  0.1602E-01
    -10.623  0.6611E-02  0.1666E-01
    -10.526  0.3500E-01  0.2006E-01
    -10.429  0.5749E-01  0.2563E-01
    -10.332  0.1620E-01  0.2720E-01
    -10.235  0.1780E-01  0.2893E-01
    -10.138  0.4853E-01  0.3364E-01
    -10.041  0.3588E-01  0.3712E-01
     -9.944  0.4166E-01  0.4116E-01
     -9.847  0.5307E-01  0.4631E-01
     -9.750  0.1716E-01  0.4797E-01
     -9.653  0.3055E-03  0.4800E-01
     -9.556  0.3002E-07  0.4800E-01
     -9.459  0.4409E-14  0.4800E-01
     -9.362  0.0000E+00  0.4800E-01
     -9.265  0.0000E+00  0.4800E-01
     -9.168  0.0000E+00  0.4800E-01
     -9.071  0.0000E+00  0.4800E-01
     -8.974  0.0000E+00  0.4800E-01
     -8.877  0.1096E-14  0.4800E-01
     -8.780  0.3305E-07  0.4800E-01
     -8.683  0.8661E-03  0.4808E-01
     -8.586  0.4735E-01  0.5268E-01
     -8.489  0.3393E-01  0.5597E-01
     -8.392  0.3248E-03  0.5600E-01
     -8.295  0.1058E-07  0.5600E-01
     -8.198  0.1294E-11  0.5600E-01
     -8.101  0.3627E-05  0.5600E-01
     -8.004  0.9339E-02  0.5691E-01
     -7.907  0.6763E-01  0.6347E-01
     -7.810  0.5501E-02  0.6400E-01
     -7.713  0.1037E-05  0.6400E-01
     -7.616  0.1704E-12  0.6400E-01
     -7.519  0.0000E+00  0.6400E-01
     -7.422  0.0000E+00  0.6400E-01
     -7.325  0.0000E+00  0.6400E-01
     -7.228  0.0000E+00  0.6400E-01
     -7.131  0.0000E+00  0.6400E-01
     -7.034  0.0000E+00  0.6400E-01
     -6.937  0.0000E+00  0.6400E-01
     -6.840  0.0000E+00  0.6400E-01
     -6.743  0.0000E+00  0.6400E-01
     -6.646  0.0000E+00  0.6400E-01
     -6.549  0.4217E-15  0.6400E-01
     -6.452  0.1746E-07  0.6400E-01
     -6.355  0.6001E-03  0.6406E-01
     -6.258  0.4179E-01  0.6811E-01
     -6.161  0.3961E-01  0.7195E-01
     -6.064  0.4768E-03  0.7200E-01
     -5.967  0.1049E-07  0.7200E-01
     -5.870  0.6448E-06  0.7200E-01
     -5.773  0.3474E-03  0.7203E-01
     -5.676  0.7828E-03  0.7211E-01
     -5.579  0.2547E-03  0.7213E-01
     -5.482  0.4423E-02  0.7256E-01
     -5.385  0.1910E-02  0.7275E-01
     -5.288  0.6247E-02  0.7335E-01
     -5.191  0.3376E-02  0.7368E-01
     -5.094  0.6937E-02  0.7435E-01
     -4.997  0.1001E-01  0.7533E-01
     -4.900  0.6825E-02  0.7599E-01
     -4.803  0.2287E-01  0.7821E-01
     -4.706  0.5515E-01  0.8356E-01
     -4.609  0.2879E-01  0.8635E-01
     -4.512  0.4403E-02  0.8678E-01
     -4.415  0.5491E-04  0.8678E-01
     -4.318  0.3359E-02  0.8711E-01
     -4.221  0.2666E-01  0.8969E-01
     -4.124  0.6180E-01  0.9569E-01
     -4.027  0.2073E-02  0.9589E-01
     -3.930  0.1823E-06  0.9589E-01
     -3.833  0.1156E-05  0.9589E-01
     -3.736  0.4174E-03  0.9593E-01
     -3.639  0.7175E-03  0.9600E-01
     -3.542  0.9402E-05  0.9600E-01
     -3.445  0.1548E-09  0.9600E-01
     -3.348  0.1780E-17  0.9600E-01
     -3.251  0.0000E+00  0.9600E-01
     -3.154  0.0000E+00  0.9600E-01
     -3.057  0.0000E+00  0.9600E-01
     -2.960  0.0000E+00  0.9600E-01
     -2.863  0.0000E+00  0.9600E-01
     -2.766  0.0000E+00  0.9600E-01
     -2.669  0.0000E+00  0.9600E-01
     -2.572  0.0000E+00  0.9600E-01
     -2.475  0.0000E+00  0.9600E-01
     -2.378  0.0000E+00  0.9600E-01
     -2.281  0.1272E-18  0.9600E-01
     -2.184  0.2752E-10  0.9600E-01
     -2.087  0.6821E-05  0.9600E-01
     -1.990  0.2446E-02  0.9624E-01
     -1.893  0.1160E-01  0.9736E-01
     -1.796  0.1019E-01  0.9835E-01
     -1.699  0.1347E-01  0.9966E-01
     -1.602  0.1735E-01  0.1013E+00
     -1.505  0.1146E-01  0.1025E+00
     -1.408  0.1842E-01  0.1042E+00
     -1.311  0.9949E-02  0.1052E+00
     -1.214  0.8685E-02  0.1060E+00
     -1.117  0.1973E-01  0.1080E+00
     -1.020  0.3703E-01  0.1116E+00
     -0.923  0.3070E-01  0.1145E+00
     -0.826  0.2142E-01  0.1166E+00
     -0.729  0.1979E-01  0.1185E+00
     -0.632  0.2264E-01  0.1207E+00
     -0.535  0.2825E-01  0.1235E+00
     -0.438  0.2450E-01  0.1258E+00
     -0.341  0.2325E-01  0.1281E+00
     -0.244  0.1434E-01  0.1295E+00
     -0.147  0.2258E-01  0.1317E+00
     -0.050  0.2378E-01  0.1340E+00
      0.047  0.3430E-01  0.1373E+00
      0.144  0.5028E-01  0.1422E+00
      0.241  0.3529E-01  0.1456E+00
      0.338  0.3991E-01  0.1495E+00
      0.435  0.2945E-01  0.1523E+00
      0.532  0.2174E-01  0.1544E+00
      0.629  0.4084E-01  0.1584E+00
      0.726  0.6195E-01  0.1644E+00
      0.823  0.4546E-01  0.1688E+00
      0.920  0.1820E-01  0.1706E+00
      1.017  0.2429E-01  0.1730E+00
      1.114  0.2869E-02  0.1732E+00
      1.211  0.3318E-02  0.1736E+00
      1.308  0.2761E-02  0.1738E+00
      1.405  0.3879E-02  0.1742E+00
      1.502  0.2644E-02  0.1745E+00
      1.599  0.3280E-02  0.1748E+00
      1.696  0.3958E-02  0.1752E+00
      1.793  0.2095E-02  0.1754E+00
      1.890  0.4489E-02  0.1758E+00
      1.987  0.1002E-02  0.1759E+00
      2.084  0.1142E-05  0.1759E+00
      2.181  0.1991E-11  0.1759E+00
      2.278  0.4291E-09  0.1759E+00
      2.375  0.1574E-04  0.1759E+00
      2.472  0.7919E-03  0.1760E+00
      2.569  0.3373E-03  0.1760E+00
      2.666  0.5892E-06  0.1760E+00
      2.763  0.1057E-11  0.1760E+00
      2.860  0.2017E-06  0.1760E+00
      2.957  0.3592E-03  0.1760E+00
      3.054  0.1937E-02  0.1762E+00
      3.151  0.1347E-02  0.1764E+00
      3.248  0.4804E-02  0.1768E+00
      3.345  0.8992E-02  0.1777E+00
      3.442  0.7845E-02  0.1785E+00
      3.539  0.9643E-02  0.1794E+00
      3.636  0.8452E-02  0.1802E+00
      3.733  0.3862E-02  0.1806E+00
      3.830  0.1546E-02  0.1807E+00
      3.927  0.4555E-02  0.1812E+00
      4.024  0.3804E-02  0.1815E+00
      4.121  0.4704E-02  0.1820E+00
      4.218  0.1469E-01  0.1834E+00
      4.315  0.8121E-02  0.1842E+00
      4.412  0.4472E-02  0.1846E+00
      4.509  0.8823E-02  0.1855E+00
      4.606  0.2112E-01  0.1876E+00
      4.703  0.5370E-01  0.1928E+00
      4.800  0.1269E-01  0.1940E+00
      4.897  0.9147E-04  0.1940E+00
      4.994  0.9663E-08  0.1940E+00
      5.091  0.6338E-04  0.1940E+00
      5.188  0.2345E-02  0.1942E+00
      5.285  0.1604E-01  0.1958E+00
      5.382  0.3047E-01  0.1987E+00
      5.479  0.1767E-01  0.2005E+00
      5.576  0.3011E-02  0.2008E+00
      5.673  0.2954E-02  0.2010E+00
      5.770  0.9380E-02  0.2019E+00
      5.867  0.1160E-01  0.2031E+00
      5.964  0.1417E-01  0.2044E+00
      6.061  0.1449E-01  0.2059E+00
      6.158  0.6782E-02  0.2065E+00
      6.255  0.1396E-01  0.2079E+00
      6.352  0.7966E-02  0.2086E+00
      6.449  0.1064E-01  0.2097E+00
      6.546  0.1633E-01  0.2113E+00
      6.643  0.2873E-01  0.2140E+00
      6.740  0.2393E-01  0.2164E+00
      6.837  0.2842E-01  0.2191E+00
      6.934  0.1545E-01  0.2206E+00
      7.031  0.2704E-01  0.2232E+00
      7.128  0.2796E-01  0.2260E+00
      7.225  0.2568E-01  0.2284E+00
      7.322  0.2827E-01  0.2312E+00
      7.419  0.2823E-01  0.2339E+00
      7.516  0.2319E-01  0.2362E+00
      7.613  0.2167E-01  0.2383E+00
      7.710  0.1364E-01  0.2396E+00
      7.807  0.3959E-02  0.2400E+00
      7.904  0.1850E-03  0.2400E+00
      8.001  0.1633E-07  0.2400E+00
      8.098  0.1079E-14  0.2400E+00
      8.195  0.0000E+00  0.2400E+00
      8.292  0.0000E+00  0.2400E+00
      8.389  0.0000E+00  0.2400E+00
      8.486  0.0000E+00  0.2400E+00
      8.583  0.0000E+00  0.2400E+00
      8.680  0.0000E+00  0.2400E+00
      8.777  0.0000E+00  0.2400E+00
      8.874  0.0000E+00  0.2400E+00
      8.971  0.0000E+00  0.2400E+00
      9.068  0.0000E+00  0.2400E+00
