       N       E                     dE             d eps       ncg     rms          ort
DAV:   1     0.148988698090E+04    0.14899E+04   -0.10936E+05  1200   0.211E+03
DAV:   2     0.267679171642E+02   -0.14631E+04   -0.13998E+04  1200   0.290E+02
DAV:   3    -0.175885425780E+03   -0.20265E+03   -0.20078E+03  1200   0.128E+02
DAV:   4    -0.181578542958E+03   -0.56931E+01   -0.56429E+01  1200   0.233E+01
DAV:   5    -0.181736879799E+03   -0.15834E+00   -0.15783E+00  1200   0.371E+00
SDA:   6    -0.135723100508E+03    0.46014E+02   -0.15783E+00  1200   0.180E+03 0.000E+00
CGA:   7    -0.156929622245E+03   -0.21207E+02   -0.24654E+02  1200   0.879E+01 0.159E+02
CGA:   8    -0.159286309773E+03   -0.23567E+01   -0.22562E+01  1200   0.194E+01 0.153E+01
CGA:   9    -0.160058667862E+03   -0.77236E+00   -0.77139E+00  1200   0.781E+00 0.145E-02
CGA:  10    -0.160304696719E+03   -0.24603E+00   -0.24660E+00  1200   0.224E+00-0.392E-02
CGA:  11    -0.160388506381E+03   -0.83810E-01   -0.84021E-01  1200   0.838E-01-0.130E-02
CGA:  12    -0.160414689912E+03   -0.26184E-01   -0.26200E-01  1200   0.194E-01-0.148E-03
CGA:  13    -0.160421028652E+03   -0.63387E-02   -0.63365E-02  1200   0.534E-02 0.271E-04
CGA:  14    -0.160422953721E+03   -0.19251E-02   -0.19223E-02  1200   0.139E-02 0.220E-04
CGA:  15    -0.160423462673E+03   -0.50895E-03   -0.50764E-03  1200   0.409E-03 0.101E-04
CGA:  16    -0.160423628291E+03   -0.16562E-03   -0.16525E-03  1200   0.131E-03 0.225E-05
CGA:  17    -0.160423678722E+03   -0.50432E-04   -0.50541E-04  1200   0.369E-04-0.807E-06
CGA:  18    -0.160423693568E+03   -0.14845E-04   -0.14990E-04  1200   0.103E-04-0.959E-06
CGA:  19    -0.160423697814E+03   -0.42463E-05   -0.42712E-05  1200   0.289E-05-0.147E-06
   1 F= -.16042370E+03 E0= -.16042370E+03  d E =-.160424E+03
       N       E                     dE             d eps       ncg     rms          ort
SDA:   1     0.168449131671E+04    0.18449E+04    0.00000E+00  1200   0.357E+04 0.000E+00
CGA:   2     0.662518598737E+03   -0.10220E+04   -0.10311E+04  1200   0.216E+04-0.581E+03
CGA:   3     0.298137443546E+03   -0.36438E+03   -0.40717E+03  1200   0.586E+03 0.297E+03
CGA:   4     0.121729390448E+03   -0.17641E+03   -0.17553E+03  1200   0.204E+03-0.353E+01
CGA:   5     0.707079346469E+02   -0.51021E+02   -0.51667E+02  1200   0.886E+02 0.134E+02
CGA:   6     0.471136664261E+02   -0.23594E+02   -0.23826E+02  1200   0.310E+02 0.498E+01
CGA:   7     0.369652642117E+02   -0.10148E+02   -0.10181E+02  1200   0.152E+02-0.878E-01
CGA:   8     0.326506091818E+02   -0.43147E+01   -0.43226E+01  1200   0.813E+01-0.335E+00
CGA:   9     0.307811233963E+02   -0.18695E+01   -0.18581E+01  1200   0.323E+01-0.354E-01
CGA:  10     0.298836273465E+02   -0.89750E+00   -0.89649E+00  1200   0.112E+01 0.135E+00
CGA:  11     0.295377109947E+02   -0.34592E+00   -0.34610E+00  1200   0.545E+00-0.710E-02
CGA:  12     0.294244619756E+02   -0.11325E+00   -0.11322E+00  1200   0.284E+00-0.299E-02
CGA:  13     0.293646257546E+02   -0.59836E-01   -0.11903E+00  1200   0.516E+00-0.265E+00
CGA:  14     0.292955423979E+02   -0.69083E-01   -0.67731E-01  1200   0.143E+00 0.611E-02
CGA:  15     0.292630652109E+02   -0.32477E-01   -0.32460E-01  1200   0.442E-01-0.222E-03
CGA:  16     0.292480377452E+02   -0.15027E-01   -0.15678E-01  1200   0.493E-01-0.718E-02
CGA:  17     0.292397827503E+02   -0.82550E-02   -0.82177E-02  1200   0.273E-01-0.821E-03
CGA:  18     0.292360337048E+02   -0.37490E-02   -0.35824E-02  1200   0.153E-01 0.537E-03
CGA:  19     0.292336365982E+02   -0.23971E-02   -0.23884E-02  1200   0.807E-02-0.577E-04
CGA:  20     0.292323649241E+02   -0.12717E-02   -0.12659E-02  1200   0.555E-02-0.196E-04
CGA:  21     0.292315900164E+02   -0.77491E-03   -0.77046E-03  1200   0.266E-02-0.340E-06
CGA:  22     0.292311970595E+02   -0.39296E-03   -0.39185E-03  1200   0.158E-02 0.257E-05
CGA:  23     0.292309728050E+02   -0.22425E-03   -0.22337E-03  1200   0.984E-03 0.545E-05
CGA:  24     0.292307993212E+02   -0.17348E-03   -0.17294E-03  1200   0.800E-03-0.150E-05
CGA:  25     0.292306783335E+02   -0.12099E-03   -0.11947E-03  1200   0.521E-03-0.149E-05
CGA:  26     0.292306103622E+02   -0.67971E-04   -0.67238E-04  1200   0.257E-03 0.759E-06
CGA:  27     0.292305677391E+02   -0.42623E-04   -0.42543E-04  1200   0.296E-03 0.424E-06
CGA:  28     0.292305213700E+02   -0.46369E-04   -0.46316E-04  1200   0.123E-03 0.100E-05
CGA:  29     0.292305094223E+02   -0.11948E-04   -0.11932E-04  1200   0.554E-04 0.101E-05
CGA:  30     0.292304979802E+02   -0.11442E-04   -0.11453E-04  1200   0.645E-04 0.141E-05
CGA:  31     0.292304894498E+02   -0.85303E-05   -0.86366E-05  1200   0.294E-04 0.122E-05
CGA:  32     0.292304853852E+02   -0.40646E-05   -0.40321E-05  1200   0.204E-04-0.183E-06
   2 F= 0.29230485E+02 E0= 0.29231877E+02  d E =0.189654E+03
       N       E                     dE             d eps       ncg     rms          ort
SDA:   1     0.111212487571E+04    0.10829E+04    0.00000E+00  1200   0.387E+04 0.000E+00
CGA:   2     0.227894243595E+03   -0.88423E+03   -0.90686E+03  1200   0.113E+04-0.225E+03
CGA:   3    -0.599111355861E+02   -0.28781E+03   -0.28357E+03  1200   0.253E+03 0.496E+02
CGA:   4    -0.135276731584E+03   -0.75366E+02   -0.73882E+02  1200   0.539E+02 0.167E+02
CGA:   5    -0.153803267890E+03   -0.18527E+02   -0.18027E+02  1200   0.173E+02 0.439E+01
CGA:   6    -0.161521084283E+03   -0.77178E+01   -0.75480E+01  1200   0.629E+01 0.882E+00
CGA:   7    -0.164321767128E+03   -0.28007E+01   -0.28169E+01  1200   0.196E+01 0.154E-01
CGA:   8    -0.165047044044E+03   -0.72528E+00   -0.72262E+00  1200   0.455E+00 0.123E-01
CGA:   9    -0.165215662418E+03   -0.16862E+00   -0.16873E+00  1200   0.102E+00-0.101E-02
CGA:  10    -0.165253991541E+03   -0.38329E-01   -0.38367E-01  1200   0.259E-01-0.323E-03
CGA:  11    -0.165264656662E+03   -0.10665E-01   -0.10684E-01  1200   0.818E-02-0.115E-03
CGA:  12    -0.165268270382E+03   -0.36137E-02   -0.36224E-02  1200   0.274E-02-0.439E-04
CGA:  13    -0.165269421585E+03   -0.11512E-02   -0.11533E-02  1200   0.860E-03-0.136E-04
CGA:  14    -0.165269757577E+03   -0.33599E-03   -0.33610E-03  1200   0.249E-03-0.848E-06
CGA:  15    -0.165269854993E+03   -0.97416E-04   -0.97369E-04  1200   0.687E-04 0.468E-06
CGA:  16    -0.165269884600E+03   -0.29607E-04   -0.29674E-04  1200   0.221E-04-0.464E-06
CGA:  17    -0.165269894196E+03   -0.95960E-05   -0.95539E-05  1200   0.775E-05 0.299E-06
CGA:  18    -0.165269897369E+03   -0.31732E-05   -0.31277E-05  1200   0.239E-05 0.500E-06
   3 F= -.16526990E+03 E0= -.16526990E+03  d E =-.484620E+01
       N       E                     dE             d eps       ncg     rms          ort
SDA:   1    -0.163148040834E+03    0.21219E+01    0.00000E+00  1200   0.118E+02 0.000E+00
CGA:   2    -0.167134535138E+03   -0.39865E+01   -0.39880E+01  1200   0.360E+01-0.409E-01
CGA:   3    -0.168091632371E+03   -0.95710E+00   -0.95820E+00  1200   0.675E+00 0.590E-02
CGA:   4    -0.168262403041E+03   -0.17077E+00   -0.17070E+00  1200   0.115E+00-0.568E-03
CGA:   5    -0.168297174979E+03   -0.34772E-01   -0.34772E-01  1200   0.272E-01 0.596E-05
CGA:   6    -0.168306641936E+03   -0.94670E-02   -0.94654E-02  1200   0.804E-02 0.398E-04
CGA:   7    -0.168309652641E+03   -0.30107E-02   -0.30112E-02  1200   0.239E-02-0.888E-05
CGA:   8    -0.168310505066E+03   -0.85242E-03   -0.85251E-03  1200   0.535E-03-0.232E-05
CGA:   9    -0.168310693315E+03   -0.18825E-03   -0.18823E-03  1200   0.104E-03 0.577E-06
CGA:  10    -0.168310730772E+03   -0.37458E-04   -0.37487E-04  1200   0.205E-04-0.709E-06
CGA:  11    -0.168310738742E+03   -0.79694E-05   -0.80184E-05  1200   0.468E-05-0.681E-06
CGA:  12    -0.168310740632E+03   -0.18905E-05   -0.19130E-05  1200   0.116E-05-0.233E-06
   4 F= -.16831074E+03 E0= -.16831074E+03  d E =-.788704E+01
       N       E                     dE             d eps       ncg     rms          ort
SDA:   1    -0.167226121208E+03    0.10846E+01    0.00000E+00  1200   0.360E+01 0.000E+00
CGA:   2    -0.168462131056E+03   -0.12360E+01   -0.12361E+01  1200   0.108E+01-0.573E-02
CGA:   3    -0.168751985146E+03   -0.28985E+00   -0.29001E+00  1200   0.197E+00 0.352E-03
CGA:   4    -0.168801720039E+03   -0.49735E-01   -0.49725E-01  1200   0.340E-01-0.663E-04
CGA:   5    -0.168811993700E+03   -0.10274E-01   -0.10274E-01  1200   0.800E-02 0.466E-05
CGA:   6    -0.168814784597E+03   -0.27909E-02   -0.27908E-02  1200   0.237E-02 0.432E-05
CGA:   7    -0.168815678460E+03   -0.89386E-03   -0.89412E-03  1200   0.700E-03-0.578E-05
CGA:   8    -0.168815929434E+03   -0.25097E-03   -0.25102E-03  1200   0.154E-03-0.157E-05
CGA:   9    -0.168815984440E+03   -0.55006E-04   -0.55004E-04  1200   0.306E-04 0.818E-07
CGA:  10    -0.168815995525E+03   -0.11086E-04   -0.11097E-04  1200   0.620E-05-0.413E-06
CGA:  11    -0.168815997938E+03   -0.24130E-05   -0.24340E-05  1200   0.144E-05-0.338E-06
   5 F= -.16881600E+03 E0= -.16881600E+03  d E =-.839230E+01
       N       E                     dE             d eps       ncg     rms          ort
SDA:   1    -0.177465105786E+02    0.15107E+03    0.00000E+00  1200   0.327E+03 0.000E+00
CGA:   2    -0.116171292206E+03   -0.98425E+02   -0.98305E+02  1200   0.132E+03-0.356E+01
CGA:   3    -0.149605184771E+03   -0.33434E+02   -0.33953E+02  1200   0.242E+02 0.124E+01
CGA:   4    -0.156607449508E+03   -0.70023E+01   -0.69939E+01  1200   0.476E+01-0.745E-01
CGA:   5    -0.158057526836E+03   -0.14501E+01   -0.14497E+01  1200   0.121E+01-0.100E-01
CGA:   6    -0.158504180423E+03   -0.44665E+00   -0.44625E+00  1200   0.365E+00 0.776E-02
CGA:   7    -0.158639021979E+03   -0.13484E+00   -0.13481E+00  1200   0.105E+00 0.621E-03
CGA:   8    -0.158676666785E+03   -0.37645E-01   -0.37640E-01  1200   0.319E-01 0.168E-03
CGA:   9    -0.158688163667E+03   -0.11497E-01   -0.11498E-01  1200   0.875E-02-0.578E-04
CGA:  10    -0.158691542668E+03   -0.33790E-02   -0.33803E-02  1200   0.220E-02-0.270E-04
CGA:  11    -0.158692483460E+03   -0.94079E-03   -0.94094E-03  1200   0.610E-03-0.161E-05
CGA:  12    -0.158692748039E+03   -0.26458E-03   -0.26488E-03  1200   0.184E-03-0.314E-05
CGA:  13    -0.158692819705E+03   -0.71667E-04   -0.71765E-04  1200   0.623E-04-0.226E-05
CGA:  14    -0.158692843535E+03   -0.23829E-04   -0.23864E-04  1200   0.183E-04-0.958E-06
CGA:  15    -0.158692851173E+03   -0.76381E-05   -0.75994E-05  1200   0.512E-05 0.565E-06
CGA:  16    -0.158692853441E+03   -0.22683E-05   -0.22357E-05  1200   0.157E-05 0.488E-06
   6 F= -.15869285E+03 E0= -.15869285E+03  d E =0.101231E+02
       N       E                     dE             d eps       ncg     rms          ort
SDA:   1    -0.884336887143E+02    0.70259E+02    0.00000E+00  1200   0.185E+03 0.000E+00
CGA:   2    -0.153019557818E+03   -0.64586E+02   -0.64660E+02  1200   0.554E+02 0.268E+01
CGA:   3    -0.167893414005E+03   -0.14874E+02   -0.14864E+02  1200   0.102E+02 0.246E+00
CGA:   4    -0.170464392429E+03   -0.25710E+01   -0.25839E+01  1200   0.167E+01 0.352E-01
CGA:   5    -0.170948064259E+03   -0.48367E+00   -0.48404E+00  1200   0.378E+00 0.331E-02
CGA:   6    -0.171073507296E+03   -0.12544E+00   -0.12547E+00  1200   0.997E-01 0.133E-02
CGA:   7    -0.171111040372E+03   -0.37533E-01   -0.37521E-01  1200   0.321E-01 0.329E-03
CGA:   8    -0.171123105445E+03   -0.12065E-01   -0.12063E-01  1200   0.829E-02 0.685E-04
CGA:   9    -0.171126128352E+03   -0.30229E-02   -0.30228E-02  1200   0.200E-02 0.686E-05
CGA:  10    -0.171126876591E+03   -0.74824E-03   -0.74829E-03  1200   0.457E-03-0.259E-05
CGA:  11    -0.171127057413E+03   -0.18082E-03   -0.18084E-03  1200   0.105E-03-0.519E-06
CGA:  12    -0.171127100887E+03   -0.43474E-04   -0.43486E-04  1200   0.238E-04-0.190E-06
CGA:  13    -0.171127111325E+03   -0.10438E-04   -0.10488E-04  1200   0.673E-05-0.599E-06
CGA:  14    -0.171127114036E+03   -0.27111E-05   -0.27190E-05  1200   0.214E-05-0.147E-06
   7 F= -.17112711E+03 E0= -.17112711E+03  d E =-.231112E+01
       N       E                     dE             d eps       ncg     rms          ort
SDA:   1    -0.171101081911E+03    0.26029E-01    0.00000E+00  1200   0.790E-01 0.000E+00
CGA:   2    -0.171127901262E+03   -0.26819E-01   -0.26820E-01  1200   0.306E-01-0.414E-05
CGA:   3    -0.171135565844E+03   -0.76646E-02   -0.76607E-02  1200   0.438E-02-0.161E-04
CGA:   4    -0.171136710369E+03   -0.11445E-02   -0.11434E-02  1200   0.690E-03-0.116E-04
CGA:   5    -0.171136903900E+03   -0.19353E-03   -0.19346E-03  1200   0.140E-03-0.928E-06
CGA:   6    -0.171136950976E+03   -0.47076E-04   -0.47034E-04  1200   0.374E-04-0.253E-05
CGA:   7    -0.171136965033E+03   -0.14056E-04   -0.14139E-04  1200   0.129E-04-0.253E-05
CGA:   8    -0.171136969554E+03   -0.45214E-05   -0.45429E-05  1200   0.351E-05-0.869E-06
   8 F= -.17113697E+03 E0= -.17113697E+03  d E =-.232097E+01
       N       E                     dE             d eps       ncg     rms          ort
SDA:   1    -0.159674884014E+03    0.11462E+02    0.00000E+00  1200   0.259E+02 0.000E+00
CGA:   2    -0.167877559943E+03   -0.82027E+01   -0.81942E+01  1200   0.839E+01-0.910E-01
CGA:   3    -0.170183534872E+03   -0.23060E+01   -0.23129E+01  1200   0.139E+01 0.222E-01
CGA:   4    -0.170539193675E+03   -0.35566E+00   -0.35541E+00  1200   0.218E+00-0.564E-03
CGA:   5    -0.170605267608E+03   -0.66074E-01   -0.66077E-01  1200   0.461E-01 0.220E-05
CGA:   6    -0.170621194646E+03   -0.15927E-01   -0.15927E-01  1200   0.134E-01 0.893E-04
CGA:   7    -0.170626407581E+03   -0.52129E-02   -0.52116E-02  1200   0.410E-02 0.298E-04
CGA:   8    -0.170627916008E+03   -0.15084E-02   -0.15082E-02  1200   0.107E-02 0.992E-05
CGA:   9    -0.170628302325E+03   -0.38632E-03   -0.38631E-03  1200   0.224E-03 0.635E-06
CGA:  10    -0.170628383697E+03   -0.81372E-04   -0.81369E-04  1200   0.473E-04 0.179E-06
CGA:  11    -0.170628401677E+03   -0.17980E-04   -0.17987E-04  1200   0.104E-04-0.205E-06
CGA:  12    -0.170628405961E+03   -0.42835E-05   -0.43108E-05  1200   0.300E-05-0.409E-06
   9 F= -.17062841E+03 E0= -.17062841E+03  d E =0.508564E+00
       N       E                     dE             d eps       ncg     rms          ort
SDA:   1    -0.166659381207E+03    0.39690E+01    0.00000E+00  1200   0.109E+02 0.000E+00
CGA:   2    -0.170197636263E+03   -0.35383E+01   -0.35404E+01  1200   0.343E+01 0.278E-01
CGA:   3    -0.171182507639E+03   -0.98487E+00   -0.98396E+00  1200   0.529E+00-0.248E-02
CGA:   4    -0.171315155022E+03   -0.13265E+00   -0.13275E+00  1200   0.897E-01 0.212E-03
CGA:   5    -0.171341536132E+03   -0.26381E-01   -0.26380E-01  1200   0.192E-01-0.456E-05
CGA:   6    -0.171348181252E+03   -0.66451E-02   -0.66451E-02  1200   0.577E-02-0.711E-05
CGA:   7    -0.171350422055E+03   -0.22408E-02   -0.22409E-02  1200   0.180E-02-0.214E-05
CGA:   8    -0.171351079820E+03   -0.65777E-03   -0.65782E-03  1200   0.456E-03-0.256E-05
CGA:   9    -0.171351240417E+03   -0.16060E-03   -0.16060E-03  1200   0.969E-04-0.130E-06
CGA:  10    -0.171351274413E+03   -0.33996E-04   -0.33994E-04  1200   0.199E-04 0.480E-06
CGA:  11    -0.171351281919E+03   -0.75061E-05   -0.74944E-05  1200   0.421E-05 0.441E-06
CGA:  12    -0.171351283688E+03   -0.17687E-05   -0.17573E-05  1200   0.107E-05 0.194E-06
  10 F= -.17135128E+03 E0= -.17135128E+03  d E =-.214314E+00
       N       E                     dE             d eps       ncg     rms          ort
SDA:   1    -0.171213437120E+03    0.13784E+00    0.00000E+00  1200   0.502E+00 0.000E+00
CGA:   2    -0.171352319368E+03   -0.13888E+00   -0.13878E+00  1200   0.140E+00-0.267E-03
CGA:   3    -0.171392775380E+03   -0.40456E-01   -0.40460E-01  1200   0.267E-01-0.436E-04
CGA:   4    -0.171399962684E+03   -0.71873E-02   -0.71834E-02  1200   0.476E-02-0.463E-04
CGA:   5    -0.171401409720E+03   -0.14470E-02   -0.14462E-02  1200   0.111E-02-0.226E-04
CGA:   6    -0.171401814578E+03   -0.40486E-03   -0.40507E-03  1200   0.345E-03-0.789E-05
CGA:   7    -0.171401950358E+03   -0.13578E-03   -0.13617E-03  1200   0.102E-03-0.706E-05
CGA:   8    -0.171401987015E+03   -0.36658E-04   -0.36710E-04  1200   0.232E-04-0.231E-05
CGA:   9    -0.171401994514E+03   -0.74981E-05   -0.74992E-05  1200   0.427E-05 0.698E-07
CGA:  10    -0.171401996066E+03   -0.15520E-05   -0.15506E-05  1200   0.905E-06 0.835E-07
  11 F= -.17140200E+03 E0= -.17140200E+03  d E =-.507124E-01
       N       E                     dE             d eps       ncg     rms          ort
SDA:   1    -0.171393646810E+03    0.83477E-02    0.00000E+00  1200   0.271E-01 0.000E+00
CGA:   2    -0.171401152868E+03   -0.75061E-02   -0.75056E-02  1200   0.752E-02 0.585E-05
CGA:   3    -0.171403337755E+03   -0.21849E-02   -0.21840E-02  1200   0.144E-02-0.180E-04
CGA:   4    -0.171403725414E+03   -0.38766E-03   -0.38694E-03  1200   0.258E-03-0.989E-05
CGA:   5    -0.171403804618E+03   -0.79204E-04   -0.79042E-04  1200   0.612E-04-0.536E-05
CGA:   6    -0.171403826964E+03   -0.22346E-04   -0.22417E-04  1200   0.194E-04-0.193E-05
CGA:   7    -0.171403834725E+03   -0.77611E-05   -0.79059E-05  1200   0.629E-05-0.179E-05
CGA:   8    -0.171403836845E+03   -0.21201E-05   -0.21358E-05  1200   0.141E-05-0.503E-06
  12 F= -.17140384E+03 E0= -.17140384E+03  d E =-.525532E-01
       N       E                     dE             d eps       ncg     rms          ort
SDA:   1    -0.171375735640E+03    0.28099E-01    0.00000E+00  1200   0.174E+00 0.000E+00
CGA:   2    -0.171418832618E+03   -0.43097E-01   -0.43073E-01  1200   0.474E-01-0.134E-04
CGA:   3    -0.171432319329E+03   -0.13487E-01   -0.13486E-01  1200   0.960E-02-0.360E-04
CGA:   4    -0.171434998786E+03   -0.26795E-02   -0.26777E-02  1200   0.183E-02-0.313E-04
CGA:   5    -0.171435537015E+03   -0.53823E-03   -0.53747E-03  1200   0.432E-03-0.195E-04
CGA:   6    -0.171435688007E+03   -0.15099E-03   -0.15113E-03  1200   0.129E-03-0.631E-05
CGA:   7    -0.171435736058E+03   -0.48051E-04   -0.48202E-04  1200   0.391E-04-0.313E-05
CGA:   8    -0.171435750228E+03   -0.14169E-04   -0.14233E-04  1200   0.901E-05-0.165E-05
CGA:   9    -0.171435753260E+03   -0.30328E-05   -0.30347E-05  1200   0.167E-05-0.123E-06
  13 F= -.17143575E+03 E0= -.17143575E+03  d E =-.319164E-01
       N       E                     dE             d eps       ncg     rms          ort
SDA:   1    -0.170958561172E+03    0.47719E+00    0.00000E+00  1200   0.156E+01 0.000E+00
CGA:   2    -0.171345077775E+03   -0.38652E+00   -0.38587E+00  1200   0.425E+00-0.906E-03
CGA:   3    -0.171466014934E+03   -0.12094E+00   -0.12097E+00  1200   0.855E-01 0.592E-04
CGA:   4    -0.171489994796E+03   -0.23980E-01   -0.23973E-01  1200   0.163E-01-0.110E-03
CGA:   5    -0.171494798546E+03   -0.48037E-02   -0.48016E-02  1200   0.383E-02-0.614E-04
CGA:   6    -0.171496149256E+03   -0.13507E-02   -0.13512E-02  1200   0.114E-02-0.178E-04
CGA:   7    -0.171496577723E+03   -0.42847E-03   -0.42890E-03  1200   0.340E-03-0.898E-05
CGA:   8    -0.171496701175E+03   -0.12345E-03   -0.12362E-03  1200   0.758E-04-0.476E-05
CGA:   9    -0.171496727683E+03   -0.26508E-04   -0.26517E-04  1200   0.144E-04-0.428E-06
CGA:  10    -0.171496733148E+03   -0.54646E-05   -0.54736E-05  1200   0.306E-05-0.192E-06
CGA:  11    -0.171496734353E+03   -0.12051E-05   -0.12040E-05  1200   0.726E-06 0.182E-07
  14 F= -.17149673E+03 E0= -.17149673E+03  d E =-.928975E-01
       N       E                     dE             d eps       ncg     rms          ort
SDA:   1    -0.169321626910E+03    0.21751E+01    0.00000E+00  1200   0.622E+01 0.000E+00
CGA:   2    -0.170860721069E+03   -0.15391E+01   -0.15341E+01  1200   0.169E+01-0.670E-02
CGA:   3    -0.171341477618E+03   -0.48076E+00   -0.48103E+00  1200   0.336E+00 0.132E-02
CGA:   4    -0.171436742365E+03   -0.95265E-01   -0.95245E-01  1200   0.639E-01-0.307E-03
CGA:   5    -0.171455852939E+03   -0.19111E-01   -0.19106E-01  1200   0.151E-01-0.140E-03
CGA:   6    -0.171461255533E+03   -0.54026E-02   -0.54033E-02  1200   0.453E-02-0.288E-04
CGA:   7    -0.171462966487E+03   -0.17110E-02   -0.17117E-02  1200   0.132E-02-0.164E-04
CGA:   8    -0.171463447221E+03   -0.48073E-03   -0.48100E-03  1200   0.288E-03-0.856E-05
CGA:   9    -0.171463549135E+03   -0.10191E-03   -0.10193E-03  1200   0.548E-04-0.790E-06
CGA:  10    -0.171463569960E+03   -0.20826E-04   -0.20844E-04  1200   0.116E-04-0.409E-06
CGA:  11    -0.171463574616E+03   -0.46553E-05   -0.46542E-05  1200   0.281E-05 0.153E-07
  15 F= -.17146357E+03 E0= -.17146357E+03  d E =-.597378E-01
       N       E                     dE             d eps       ncg     rms          ort
SDA:   1    -0.170560733618E+03    0.90284E+00    0.00000E+00  1200   0.276E+01 0.000E+00
CGA:   2    -0.171245423044E+03   -0.68469E+00   -0.68635E+00  1200   0.734E+00 0.220E-02
CGA:   3    -0.171455718103E+03   -0.21030E+00   -0.21023E+00  1200   0.149E+00-0.149E-03
CGA:   4    -0.171497395600E+03   -0.41677E-01   -0.41690E-01  1200   0.276E-01 0.169E-03
CGA:   5    -0.171505554055E+03   -0.81585E-02   -0.81619E-02  1200   0.636E-02 0.862E-04
CGA:   6    -0.171507801905E+03   -0.22478E-02   -0.22473E-02  1200   0.188E-02 0.274E-04
CGA:   7    -0.171508508064E+03   -0.70616E-03   -0.70557E-03  1200   0.555E-03 0.145E-04
CGA:   8    -0.171508711774E+03   -0.20371E-03   -0.20351E-03  1200   0.124E-03 0.701E-05
CGA:   9    -0.171508756585E+03   -0.44811E-04   -0.44794E-04  1200   0.245E-04 0.794E-06
CGA:  10    -0.171508765865E+03   -0.92803E-05   -0.92701E-05  1200   0.502E-05 0.266E-06
CGA:  11    -0.171508767938E+03   -0.20728E-05   -0.20743E-05  1200   0.124E-05-0.220E-07
  16 F= -.17150877E+03 E0= -.17150877E+03  d E =-.104931E+00
       N       E                     dE             d eps       ncg     rms          ort
SDA:   1    -0.171321810538E+03    0.18696E+00    0.00000E+00  1200   0.532E+00 0.000E+00
CGA:   2    -0.171471003325E+03   -0.14919E+00   -0.14912E+00  1200   0.184E+00-0.339E-03
CGA:   3    -0.171524329991E+03   -0.53327E-01   -0.53326E-01  1200   0.318E-01-0.940E-04
CGA:   4    -0.171533093655E+03   -0.87637E-02   -0.87578E-02  1200   0.594E-02-0.826E-04
CGA:   5    -0.171534951470E+03   -0.18578E-02   -0.18567E-02  1200   0.160E-02-0.434E-04
CGA:   6    -0.171535568743E+03   -0.61727E-03   -0.61782E-03  1200   0.473E-03-0.104E-04
CGA:   7    -0.171535743841E+03   -0.17510E-03   -0.17521E-03  1200   0.127E-03-0.333E-05
CGA:   8    -0.171535787184E+03   -0.43342E-04   -0.43344E-04  1200   0.286E-04-0.160E-05
CGA:   9    -0.171535796960E+03   -0.97767E-05   -0.97770E-05  1200   0.561E-05-0.680E-07
CGA:  10    -0.171535799050E+03   -0.20893E-05   -0.20820E-05  1200   0.119E-05 0.244E-06
  17 F= -.17153580E+03 E0= -.17153580E+03  d E =-.270311E-01
       N       E                     dE             d eps       ncg     rms          ort
SDA:   1    -0.171535701026E+03    0.95934E-04    0.00000E+00  1200   0.295E-03 0.000E+00
CGA:   2    -0.171535783636E+03   -0.82610E-04   -0.82597E-04  1200   0.101E-03-0.206E-06
CGA:   3    -0.171535812239E+03   -0.28603E-04   -0.28741E-04  1200   0.167E-04 0.240E-05
CGA:   4    -0.171535816438E+03   -0.41990E-05   -0.43393E-05  1200   0.287E-05 0.164E-05
CGA:   5    -0.171535817136E+03   -0.69743E-06   -0.77227E-06  1200   0.727E-06 0.833E-06
CGA:   6    -0.171535817354E+03   -0.21817E-06   -0.24296E-06  1200   0.285E-06 0.347E-06
CGA:   7    -0.171535817443E+03   -0.89377E-07   -0.10238E-06  1200   0.980E-07 0.156E-06
CGA:   8    -0.171535817467E+03   -0.23945E-07   -0.26359E-07  1200   0.396E-07 0.453E-07
  18 F= -.17153582E+03 E0= -.17153582E+03  d E =-.270495E-01
       N       E                     dE             d eps       ncg     rms          ort
SDA:   1    -0.171532302662E+03    0.35148E-02    0.00000E+00  1200   0.277E-01 0.000E+00
CGA:   2    -0.171538844193E+03   -0.65415E-02   -0.65408E-02  1200   0.774E-02 0.204E-05
CGA:   3    -0.171541212654E+03   -0.23685E-02   -0.23683E-02  1200   0.169E-02-0.323E-04
CGA:   4    -0.171541702969E+03   -0.49031E-03   -0.48980E-03  1200   0.296E-03-0.264E-04
CGA:   5    -0.171541795364E+03   -0.92396E-04   -0.92508E-04  1200   0.843E-04-0.132E-04
CGA:   6    -0.171541825959E+03   -0.30595E-04   -0.30920E-04  1200   0.264E-04-0.439E-05
CGA:   7    -0.171541835444E+03   -0.94851E-05   -0.95697E-05  1200   0.674E-05-0.123E-05
CGA:   8    -0.171541837706E+03   -0.22618E-05   -0.22681E-05  1200   0.136E-05-0.174E-06
  19 F= -.17154184E+03 E0= -.17154184E+03  d E =-.602024E-02
       N       E                     dE             d eps       ncg     rms          ort
SDA:   1    -0.171523521076E+03    0.18314E-01    0.00000E+00  1200   0.632E-01 0.000E+00
CGA:   2    -0.171538453680E+03   -0.14933E-01   -0.14929E-01  1200   0.176E-01-0.230E-05
CGA:   3    -0.171543840876E+03   -0.53872E-02   -0.53868E-02  1200   0.383E-02-0.477E-04
CGA:   4    -0.171544952220E+03   -0.11113E-02   -0.11104E-02  1200   0.664E-03-0.394E-04
CGA:   5    -0.171545159426E+03   -0.20721E-03   -0.20726E-03  1200   0.186E-03-0.196E-04
CGA:   6    -0.171545228186E+03   -0.68760E-04   -0.69225E-04  1200   0.583E-04-0.667E-05
CGA:   7    -0.171545249482E+03   -0.21295E-04   -0.21422E-04  1200   0.149E-04-0.195E-05
CGA:   8    -0.171545254590E+03   -0.51079E-05   -0.51204E-05  1200   0.307E-05-0.351E-06
CGA:   9    -0.171545255563E+03   -0.97377E-06   -0.97320E-06  1200   0.536E-06 0.155E-06
  20 F= -.17154526E+03 E0= -.17154526E+03  d E =-.943810E-02
       N       E                     dE             d eps       ncg     rms          ort
SDA:   1    -0.171543686760E+03    0.15678E-02    0.00000E+00  1200   0.159E-01 0.000E+00
CGA:   2    -0.171547538103E+03   -0.38513E-02   -0.38513E-02  1200   0.455E-02 0.447E-05
CGA:   3    -0.171548918411E+03   -0.13803E-02   -0.13800E-02  1200   0.989E-03-0.213E-04
CGA:   4    -0.171549199466E+03   -0.28105E-03   -0.28048E-03  1200   0.163E-03-0.169E-04
CGA:   5    -0.171549249454E+03   -0.49988E-04   -0.49939E-04  1200   0.458E-04-0.774E-05
CGA:   6    -0.171549266072E+03   -0.16618E-04   -0.16802E-04  1200   0.146E-04-0.268E-05
CGA:   7    -0.171549271401E+03   -0.53286E-05   -0.54248E-05  1200   0.430E-05-0.130E-05
CGA:   8    -0.171549272810E+03   -0.14092E-05   -0.14223E-05  1200   0.906E-06-0.331E-06
  21 F= -.17154927E+03 E0= -.17154927E+03  d E =-.401725E-02
       N       E                     dE             d eps       ncg     rms          ort
SDA:   1    -0.171507472023E+03    0.41799E-01    0.00000E+00  1200   0.143E+00 0.000E+00
CGA:   2    -0.171542171267E+03   -0.34699E-01   -0.34688E-01  1200   0.409E-01-0.146E-04
CGA:   3    -0.171554540392E+03   -0.12369E-01   -0.12368E-01  1200   0.883E-02-0.613E-04
CGA:   4    -0.171557038909E+03   -0.24985E-02   -0.24967E-02  1200   0.143E-02-0.507E-04
CGA:   5    -0.171557473543E+03   -0.43463E-03   -0.43434E-03  1200   0.386E-03-0.228E-04
CGA:   6    -0.171557617542E+03   -0.14400E-03   -0.14451E-03  1200   0.122E-03-0.815E-05
CGA:   7    -0.171557662819E+03   -0.45277E-04   -0.45520E-04  1200   0.341E-04-0.394E-05
CGA:   8    -0.171557674699E+03   -0.11880E-04   -0.11926E-04  1200   0.716E-05-0.120E-05
CGA:   9    -0.171557677064E+03   -0.23651E-05   -0.23626E-05  1200   0.128E-05 0.157E-06
  22 F= -.17155768E+03 E0= -.17155768E+03  d E =-.124215E-01
       N       E                     dE             d eps       ncg     rms          ort
SDA:   1    -0.171356913144E+03    0.20076E+00    0.00000E+00  1200   0.574E+00 0.000E+00
CGA:   2    -0.171496098885E+03   -0.13919E+00   -0.13908E+00  1200   0.164E+00-0.198E-03
CGA:   3    -0.171545518978E+03   -0.49420E-01   -0.49419E-01  1200   0.351E-01-0.108E-03
CGA:   4    -0.171555480729E+03   -0.99618E-02   -0.99576E-02  1200   0.568E-02-0.103E-03
CGA:   5    -0.171557208109E+03   -0.17274E-02   -0.17266E-02  1200   0.152E-02-0.456E-04
CGA:   6    -0.171557778768E+03   -0.57066E-03   -0.57156E-03  1200   0.477E-03-0.158E-04
CGA:   7    -0.171557957419E+03   -0.17865E-03   -0.17907E-03  1200   0.131E-03-0.759E-05
CGA:   8    -0.171558003897E+03   -0.46478E-04   -0.46557E-04  1200   0.274E-04-0.241E-05
CGA:   9    -0.171558013348E+03   -0.94507E-05   -0.94455E-05  1200   0.505E-05 0.236E-06
CGA:  10    -0.171558015373E+03   -0.20253E-05   -0.20300E-05  1200   0.120E-05-0.724E-07
  23 F= -.17155802E+03 E0= -.17155802E+03  d E =-.127598E-01
       N       E                     dE             d eps       ncg     rms          ort
SDA:   1    -0.171513363526E+03    0.44650E-01    0.00000E+00  1200   0.135E+00 0.000E+00
CGA:   2    -0.171546114175E+03   -0.32751E-01   -0.32763E-01  1200   0.384E-01 0.745E-05
CGA:   3    -0.171557722097E+03   -0.11608E-01   -0.11610E-01  1200   0.821E-02 0.578E-04
CGA:   4    -0.171560025836E+03   -0.23037E-02   -0.23061E-02  1200   0.131E-02 0.466E-04
CGA:   5    -0.171560417521E+03   -0.39169E-03   -0.39232E-03  1200   0.339E-03 0.211E-04
CGA:   6    -0.171560546251E+03   -0.12873E-03   -0.12837E-03  1200   0.105E-03 0.811E-05
CGA:   7    -0.171560585997E+03   -0.39746E-04   -0.39597E-04  1200   0.286E-04 0.390E-05
CGA:   8    -0.171560596403E+03   -0.10406E-04   -0.10380E-04  1200   0.592E-05 0.139E-05
CGA:   9    -0.171560598700E+03   -0.22971E-05   -0.22972E-05  1200   0.122E-05-0.135E-08
  24 F= -.17156060E+03 E0= -.17156060E+03  d E =-.153431E-01
       N       E                     dE             d eps       ncg     rms          ort
SDA:   1    -0.171559141840E+03    0.14546E-02    0.00000E+00  1200   0.619E-02 0.000E+00
CGA:   2    -0.171561017677E+03   -0.18758E-02   -0.18760E-02  1200   0.149E-02 0.398E-05
CGA:   3    -0.171561463459E+03   -0.44578E-03   -0.44554E-03  1200   0.289E-03-0.692E-05
CGA:   4    -0.171561542717E+03   -0.79258E-04   -0.79112E-04  1200   0.492E-04-0.253E-05
CGA:   5    -0.171561558085E+03   -0.15368E-04   -0.15352E-04  1200   0.120E-04-0.109E-05
CGA:   6    -0.171561562287E+03   -0.42021E-05   -0.42181E-05  1200   0.394E-05-0.537E-06
CGA:   7    -0.171561563838E+03   -0.15509E-05   -0.16028E-05  1200   0.136E-05-0.541E-06
CGA:   8    -0.171561564257E+03   -0.41902E-06   -0.42164E-06  1200   0.305E-06-0.109E-06
  25 F= -.17156156E+03 E0= -.17156156E+03  d E =-.965557E-03
       N       E                     dE             d eps       ncg     rms          ort
SDA:   1    -0.171560384044E+03    0.11798E-02    0.00000E+00  1200   0.358E-02 0.000E+00
CGA:   2    -0.171561468867E+03   -0.10848E-02   -0.10849E-02  1200   0.859E-03 0.300E-05
CGA:   3    -0.171561726338E+03   -0.25747E-03   -0.25730E-03  1200   0.167E-03-0.528E-05
CGA:   4    -0.171561772097E+03   -0.45759E-04   -0.45655E-04  1200   0.283E-04-0.193E-05
CGA:   5    -0.171561781009E+03   -0.89119E-05   -0.89040E-05  1200   0.706E-05-0.854E-06
CGA:   6    -0.171561783482E+03   -0.24727E-05   -0.24884E-05  1200   0.237E-05-0.431E-06
CGA:   7    -0.171561784414E+03   -0.93228E-06   -0.98245E-06  1200   0.899E-06-0.445E-06
CGA:   8    -0.171561784673E+03   -0.25898E-06   -0.26100E-06  1200   0.199E-06-0.877E-07
  26 F= -.17156178E+03 E0= -.17156178E+03  d E =-.118597E-02
       N       E                     dE             d eps       ncg     rms          ort
SDA:   1    -0.171560209779E+03    0.15746E-02    0.00000E+00  1200   0.588E-02 0.000E+00
CGA:   2    -0.171561949689E+03   -0.17399E-02   -0.17401E-02  1200   0.138E-02 0.485E-05
CGA:   3    -0.171562334193E+03   -0.38450E-03   -0.38443E-03  1200   0.307E-03-0.146E-05
CGA:   4    -0.171562419069E+03   -0.84876E-04   -0.84876E-04  1200   0.489E-04 0.177E-07
CGA:   5    -0.171562434524E+03   -0.15455E-04   -0.15454E-04  1200   0.125E-04-0.849E-07
CGA:   6    -0.171562438691E+03   -0.41675E-05   -0.41653E-05  1200   0.393E-05 0.210E-06
CGA:   7    -0.171562440212E+03   -0.15207E-05   -0.15236E-05  1200   0.125E-05-0.525E-07
CGA:   8    -0.171562440645E+03   -0.43280E-06   -0.43376E-06  1200   0.315E-06-0.416E-07
  27 F= -.17156244E+03 E0= -.17156244E+03  d E =-.655972E-03
       N       E                     dE             d eps       ncg     rms          ort
SDA:   1    -0.171554306462E+03    0.81337E-02    0.00000E+00  1200   0.228E-01 0.000E+00
CGA:   2    -0.171561050519E+03   -0.67441E-02   -0.67443E-02  1200   0.535E-02 0.910E-05
CGA:   3    -0.171562539128E+03   -0.14886E-02   -0.14885E-02  1200   0.119E-02-0.279E-05
CGA:   4    -0.171562867928E+03   -0.32880E-03   -0.32880E-03  1200   0.189E-03-0.172E-07
CGA:   5    -0.171562927768E+03   -0.59840E-04   -0.59839E-04  1200   0.482E-04-0.152E-06
CGA:   6    -0.171562944064E+03   -0.16296E-04   -0.16289E-04  1200   0.155E-04 0.430E-06
CGA:   7    -0.171562949928E+03   -0.58643E-05   -0.58700E-05  1200   0.480E-05-0.108E-06
CGA:   8    -0.171562951581E+03   -0.16529E-05   -0.16546E-05  1200   0.118E-05-0.820E-07
  28 F= -.17156295E+03 E0= -.17156295E+03  d E =-.116691E-02
       N       E                     dE             d eps       ncg     rms          ort
SDA:   1    -0.171562503644E+03    0.44628E-03    0.00000E+00  1200   0.262E-02 0.000E+00
CGA:   2    -0.171563234544E+03   -0.73090E-03   -0.73095E-03  1200   0.449E-03 0.100E-05
CGA:   3    -0.171563364942E+03   -0.13040E-03   -0.13037E-03  1200   0.990E-04-0.918E-06
CGA:   4    -0.171563394613E+03   -0.29671E-04   -0.29655E-04  1200   0.182E-04-0.673E-06
CGA:   5    -0.171563401009E+03   -0.63956E-05   -0.64059E-05  1200   0.515E-05-0.324E-06
CGA:   6    -0.171563402777E+03   -0.17683E-05   -0.17675E-05  1200   0.161E-05 0.322E-07
CGA:   7    -0.171563403407E+03   -0.63041E-06   -0.63350E-06  1200   0.405E-06-0.482E-07
CGA:   8    -0.171563403556E+03   -0.14818E-06   -0.14877E-06  1200   0.101E-06-0.117E-07
  29 F= -.17156340E+03 E0= -.17156340E+03  d E =-.451974E-03
       N       E                     dE             d eps       ncg     rms          ort
SDA:   1    -0.171556423532E+03    0.69799E-02    0.00000E+00  1200   0.235E-01 0.000E+00
CGA:   2    -0.171562995880E+03   -0.65723E-02   -0.65725E-02  1200   0.404E-02 0.342E-05
CGA:   3    -0.171564166052E+03   -0.11702E-02   -0.11701E-02  1200   0.889E-03-0.271E-05
CGA:   4    -0.171564431700E+03   -0.26565E-03   -0.26560E-03  1200   0.164E-03-0.194E-05
CGA:   5    -0.171564488720E+03   -0.57020E-04   -0.57045E-04  1200   0.457E-04-0.931E-06
CGA:   6    -0.171564504629E+03   -0.15909E-04   -0.15906E-04  1200   0.147E-04 0.127E-06
CGA:   7    -0.171564510207E+03   -0.55775E-05   -0.55857E-05  1200   0.359E-05-0.151E-06
CGA:   8    -0.171564511523E+03   -0.13158E-05   -0.13176E-05  1200   0.927E-06-0.444E-07
  30 F= -.17156451E+03 E0= -.17156451E+03  d E =-.155994E-02
       N       E                     dE             d eps       ncg     rms          ort
SDA:   1    -0.171533270106E+03    0.31240E-01    0.00000E+00  1200   0.941E-01 0.000E+00
CGA:   2    -0.171559558969E+03   -0.26289E-01   -0.26289E-01  1200   0.162E-01 0.717E-05
CGA:   3    -0.171564237672E+03   -0.46787E-02   -0.46786E-02  1200   0.355E-02-0.491E-05
CGA:   4    -0.171565299307E+03   -0.10616E-02   -0.10615E-02  1200   0.653E-03-0.393E-05
CGA:   5    -0.171565526830E+03   -0.22752E-03   -0.22757E-03  1200   0.182E-03-0.173E-05
CGA:   6    -0.171565590595E+03   -0.63765E-04   -0.63757E-04  1200   0.588E-04 0.287E-06
CGA:   7    -0.171565612826E+03   -0.22232E-04   -0.22247E-04  1200   0.142E-04-0.309E-06
CGA:   8    -0.171565618073E+03   -0.52463E-05   -0.52504E-05  1200   0.366E-05-0.989E-07
CGA:   9    -0.171565619190E+03   -0.11171E-05   -0.11184E-05  1200   0.828E-06 0.571E-07
  31 F= -.17156562E+03 E0= -.17156562E+03  d E =-.266761E-02
       N       E                     dE             d eps       ncg     rms          ort
SDA:   1    -0.171563806573E+03    0.18115E-02    0.00000E+00  1200   0.789E-02 0.000E+00
CGA:   2    -0.171566018682E+03   -0.22121E-02   -0.22121E-02  1200   0.127E-02-0.134E-06
CGA:   3    -0.171566394736E+03   -0.37605E-03   -0.37598E-03  1200   0.289E-03-0.234E-05
CGA:   4    -0.171566479934E+03   -0.85199E-04   -0.85144E-04  1200   0.553E-04-0.170E-05
CGA:   5    -0.171566499932E+03   -0.19997E-04   -0.20020E-04  1200   0.146E-04-0.606E-06
CGA:   6    -0.171566505463E+03   -0.55312E-05   -0.55450E-05  1200   0.509E-05-0.249E-06
CGA:   7    -0.171566507233E+03   -0.17699E-05   -0.17727E-05  1200   0.126E-05-0.117E-06
CGA:   8    -0.171566507687E+03   -0.45389E-06   -0.45404E-06  1200   0.252E-06-0.444E-08
  32 F= -.17156651E+03 E0= -.17156651E+03  d E =-.888497E-03
       N       E                     dE             d eps       ncg     rms          ort
SDA:   1    -0.171544406896E+03    0.22100E-01    0.00000E+00  1200   0.711E-01 0.000E+00
CGA:   2    -0.171564333072E+03   -0.19926E-01   -0.19926E-01  1200   0.114E-01-0.476E-06
CGA:   3    -0.171567718574E+03   -0.33855E-02   -0.33853E-02  1200   0.260E-02-0.687E-05
CGA:   4    -0.171568483110E+03   -0.76454E-03   -0.76436E-03  1200   0.495E-03-0.499E-05
CGA:   5    -0.171568662254E+03   -0.17914E-03   -0.17920E-03  1200   0.129E-03-0.163E-05
CGA:   6    -0.171568711286E+03   -0.49033E-04   -0.49069E-04  1200   0.444E-04-0.714E-06
CGA:   7    -0.171568726829E+03   -0.15542E-04   -0.15550E-04  1200   0.109E-04-0.346E-06
CGA:   8    -0.171568730850E+03   -0.40215E-05   -0.40226E-05  1200   0.225E-05-0.272E-07
  33 F= -.17156873E+03 E0= -.17156873E+03  d E =-.311166E-02
       N       E                     dE             d eps       ncg     rms          ort
SDA:   1    -0.171473949419E+03    0.94777E-01    0.00000E+00  1200   0.284E+00 0.000E+00
CGA:   2    -0.171553646391E+03   -0.79697E-01   -0.79695E-01  1200   0.457E-01-0.676E-05
CGA:   3    -0.171567182828E+03   -0.13536E-01   -0.13536E-01  1200   0.104E-01-0.126E-04
CGA:   4    -0.171570235817E+03   -0.30530E-02   -0.30526E-02  1200   0.197E-02-0.971E-05
CGA:   5    -0.171570950392E+03   -0.71457E-03   -0.71467E-03  1200   0.517E-03-0.276E-05
CGA:   6    -0.171571145986E+03   -0.19559E-03   -0.19566E-03  1200   0.177E-03-0.131E-05
CGA:   7    -0.171571208120E+03   -0.62134E-04   -0.62147E-04  1200   0.432E-04-0.712E-06
CGA:   8    -0.171571224211E+03   -0.16091E-04   -0.16094E-04  1200   0.902E-05-0.830E-07
CGA:   9    -0.171571227421E+03   -0.32096E-05   -0.32078E-05  1200   0.215E-05 0.903E-07
  34 F= -.17157123E+03 E0= -.17157123E+03  d E =-.560823E-02
       N       E                     dE             d eps       ncg     rms          ort
SDA:   1    -0.171551130940E+03    0.20093E-01    0.00000E+00  1200   0.595E-01 0.000E+00
CGA:   2    -0.171567820489E+03   -0.16690E-01   -0.16689E-01  1200   0.956E-02-0.647E-06
CGA:   3    -0.171570656327E+03   -0.28358E-02   -0.28356E-02  1200   0.218E-02-0.621E-05
CGA:   4    -0.171571296364E+03   -0.64004E-03   -0.63986E-03  1200   0.415E-03-0.451E-05
CGA:   5    -0.171571446250E+03   -0.14989E-03   -0.14993E-03  1200   0.109E-03-0.151E-05
CGA:   6    -0.171571487454E+03   -0.41203E-04   -0.41234E-04  1200   0.377E-04-0.665E-06
CGA:   7    -0.171571500676E+03   -0.13223E-04   -0.13229E-04  1200   0.922E-05-0.323E-06
CGA:   8    -0.171571504081E+03   -0.34048E-05   -0.34059E-05  1200   0.193E-05-0.304E-07
  35 F= -.17157150E+03 E0= -.17157150E+03  d E =-.588489E-02
       N       E                     dE             d eps       ncg     rms          ort
SDA:   1    -0.171569246524E+03    0.22542E-02    0.00000E+00  1200   0.873E-02 0.000E+00
CGA:   2    -0.171571689977E+03   -0.24435E-02   -0.24435E-02  1200   0.140E-02 0.412E-06
CGA:   3    -0.171572097398E+03   -0.40742E-03   -0.40737E-03  1200   0.312E-03-0.132E-05
CGA:   4    -0.171572189947E+03   -0.92549E-04   -0.92515E-04  1200   0.575E-04-0.946E-06
CGA:   5    -0.171572210650E+03   -0.20703E-04   -0.20708E-04  1200   0.155E-04-0.180E-06
CGA:   6    -0.171572216381E+03   -0.57311E-05   -0.57347E-05  1200   0.532E-05-0.951E-07
CGA:   7    -0.171572218333E+03   -0.19513E-05   -0.19553E-05  1200   0.126E-05-0.114E-06
CGA:   8    -0.171572218809E+03   -0.47612E-06   -0.47663E-06  1200   0.262E-06-0.108E-07
  36 F= -.17157222E+03 E0= -.17157222E+03  d E =-.714728E-03
       N       E                     dE             d eps       ncg     rms          ort
SDA:   1    -0.171547438498E+03    0.24780E-01    0.00000E+00  1200   0.786E-01 0.000E+00
CGA:   2    -0.171569432738E+03   -0.21994E-01   -0.21994E-01  1200   0.126E-01 0.120E-05
CGA:   3    -0.171573100398E+03   -0.36677E-02   -0.36675E-02  1200   0.281E-02-0.380E-05
CGA:   4    -0.171573931583E+03   -0.83118E-03   -0.83108E-03  1200   0.518E-03-0.282E-05
CGA:   5    -0.171574117996E+03   -0.18641E-03   -0.18642E-03  1200   0.139E-03-0.370E-06
CGA:   6    -0.171574169018E+03   -0.51022E-04   -0.51030E-04  1200   0.470E-04-0.234E-06
CGA:   7    -0.171574186176E+03   -0.17158E-04   -0.17168E-04  1200   0.109E-04-0.335E-06
CGA:   8    -0.171574190379E+03   -0.42030E-05   -0.42048E-05  1200   0.233E-05-0.364E-07
  37 F= -.17157419E+03 E0= -.17157419E+03  d E =-.268630E-02
       N       E                     dE             d eps       ncg     rms          ort
SDA:   1    -0.171470358567E+03    0.10383E+00    0.00000E+00  1200   0.314E+00 0.000E+00
CGA:   2    -0.171558349973E+03   -0.87991E-01   -0.87989E-01  1200   0.502E-01-0.367E-05
CGA:   3    -0.171573021617E+03   -0.14672E-01   -0.14672E-01  1200   0.112E-01-0.604E-05
CGA:   4    -0.171576342582E+03   -0.33210E-02   -0.33207E-02  1200   0.207E-02-0.577E-05
CGA:   5    -0.171577087098E+03   -0.74452E-03   -0.74452E-03  1200   0.556E-03-0.302E-06
CGA:   6    -0.171577291068E+03   -0.20397E-03   -0.20398E-03  1200   0.188E-03-0.359E-06
CGA:   7    -0.171577359723E+03   -0.68655E-04   -0.68676E-04  1200   0.435E-04-0.693E-06
CGA:   8    -0.171577376540E+03   -0.16817E-04   -0.16823E-04  1200   0.934E-05-0.100E-06
CGA:   9    -0.171577379791E+03   -0.32513E-05   -0.32511E-05  1200   0.231E-05 0.178E-07
  38 F= -.17157738E+03 E0= -.17157738E+03  d E =-.587571E-02
       N       E                     dE             d eps       ncg     rms          ort
SDA:   1    -0.171152583925E+03    0.42479E+00    0.00000E+00  1200   0.126E+01 0.000E+00
CGA:   2    -0.171504574594E+03   -0.35199E+00   -0.35197E+00  1200   0.201E+00-0.692E-04
CGA:   3    -0.171563309136E+03   -0.58735E-01   -0.58737E-01  1200   0.447E-01 0.640E-05
CGA:   4    -0.171576564630E+03   -0.13255E-01   -0.13255E-01  1200   0.829E-02-0.128E-04
CGA:   5    -0.171579536159E+03   -0.29715E-02   -0.29715E-02  1200   0.223E-02 0.947E-06
CGA:   6    -0.171580352198E+03   -0.81604E-03   -0.81605E-03  1200   0.752E-03-0.324E-06
CGA:   7    -0.171580627314E+03   -0.27512E-03   -0.27516E-03  1200   0.173E-03-0.150E-05
CGA:   8    -0.171580694413E+03   -0.67099E-04   -0.67115E-04  1200   0.376E-04-0.306E-06
CGA:   9    -0.171580707455E+03   -0.13042E-04   -0.13042E-04  1200   0.943E-05-0.664E-07
CGA:  10    -0.171580710706E+03   -0.32510E-05   -0.32520E-05  1200   0.256E-05-0.178E-06
  39 F= -.17158071E+03 E0= -.17158071E+03  d E =-.920662E-02
       N       E                     dE             d eps       ncg     rms          ort
SDA:   1    -0.171557729134E+03    0.22978E-01    0.00000E+00  1200   0.755E-01 0.000E+00
CGA:   2    -0.171579290502E+03   -0.21561E-01   -0.21562E-01  1200   0.125E-01 0.778E-05
CGA:   3    -0.171582988526E+03   -0.36980E-02   -0.36983E-02  1200   0.279E-02 0.668E-05
CGA:   4    -0.171583802844E+03   -0.81432E-03   -0.81447E-03  1200   0.498E-03 0.347E-05
CGA:   5    -0.171583976359E+03   -0.17352E-03   -0.17349E-03  1200   0.129E-03 0.231E-05
CGA:   6    -0.171584023277E+03   -0.46918E-04   -0.46882E-04  1200   0.433E-04 0.140E-05
CGA:   7    -0.171584039538E+03   -0.16261E-04   -0.16248E-04  1200   0.105E-04 0.368E-06
CGA:   8    -0.171584043641E+03   -0.41033E-05   -0.41049E-05  1200   0.242E-05-0.329E-07
  40 F= -.17158404E+03 E0= -.17158404E+03  d E =-.333294E-02
       N       E                     dE             d eps       ncg     rms          ort
SDA:   1    -0.171352724739E+03    0.23131E+00    0.00000E+00  1200   0.680E+00 0.000E+00
CGA:   2    -0.171546891824E+03   -0.19417E+00   -0.19416E+00  1200   0.112E+00 0.237E-04
CGA:   3    -0.171580194303E+03   -0.33302E-01   -0.33305E-01  1200   0.251E-01 0.334E-04
CGA:   4    -0.171587524206E+03   -0.73299E-02   -0.73302E-02  1200   0.450E-02 0.927E-05
CGA:   5    -0.171589088231E+03   -0.15640E-02   -0.15639E-02  1200   0.118E-02 0.810E-05
CGA:   6    -0.171589514243E+03   -0.42601E-03   -0.42589E-03  1200   0.396E-03 0.459E-05
CGA:   7    -0.171589661914E+03   -0.14767E-03   -0.14763E-03  1200   0.951E-04 0.110E-05
CGA:   8    -0.171589698870E+03   -0.36956E-04   -0.36963E-04  1200   0.219E-04-0.152E-06
CGA:   9    -0.171589706262E+03   -0.73913E-05   -0.73910E-05  1200   0.540E-05-0.143E-06
CGA:  10    -0.171589708106E+03   -0.18440E-05   -0.18443E-05  1200   0.140E-05-0.101E-06
  41 F= -.17158971E+03 E0= -.17158971E+03  d E =-.899740E-02
       N       E                     dE             d eps       ncg     rms          ort
SDA:   1    -0.171556541247E+03    0.33165E-01    0.00000E+00  1200   0.965E-01 0.000E+00
CGA:   2    -0.171584093663E+03   -0.27552E-01   -0.27553E-01  1200   0.160E-01 0.854E-05
CGA:   3    -0.171588825239E+03   -0.47316E-02   -0.47319E-02  1200   0.356E-02 0.781E-05
CGA:   4    -0.171589865232E+03   -0.10400E-02   -0.10402E-02  1200   0.637E-03 0.397E-05
CGA:   5    -0.171590086902E+03   -0.22167E-03   -0.22164E-03  1200   0.165E-03 0.262E-05
CGA:   6    -0.171590146934E+03   -0.60032E-04   -0.59992E-04  1200   0.554E-04 0.159E-05
CGA:   7    -0.171590167750E+03   -0.20816E-04   -0.20801E-04  1200   0.133E-04 0.428E-06
CGA:   8    -0.171590172997E+03   -0.52465E-05   -0.52485E-05  1200   0.308E-05-0.384E-07
CGA:   9    -0.171590174039E+03   -0.10420E-05   -0.10419E-05  1200   0.762E-06-0.254E-07
  42 F= -.17159017E+03 E0= -.17159017E+03  d E =-.946333E-02
       N       E                     dE             d eps       ncg     rms          ort
SDA:   1    -0.171549686615E+03    0.40486E-01    0.00000E+00  1200   0.126E+00 0.000E+00
CGA:   2    -0.171585646060E+03   -0.35959E-01   -0.35959E-01  1200   0.191E-01 0.901E-05
CGA:   3    -0.171591422769E+03   -0.57767E-02   -0.57771E-02  1200   0.438E-02 0.922E-05
CGA:   4    -0.171592674375E+03   -0.12516E-02   -0.12519E-02  1200   0.860E-03 0.516E-05
CGA:   5    -0.171592974073E+03   -0.29970E-03   -0.29966E-03  1200   0.224E-03 0.247E-05
CGA:   6    -0.171593057588E+03   -0.83515E-04   -0.83433E-04  1200   0.749E-04 0.225E-05
CGA:   7    -0.171593084462E+03   -0.26874E-04   -0.26866E-04  1200   0.188E-04 0.445E-06
CGA:   8    -0.171593091401E+03   -0.69394E-05   -0.69423E-05  1200   0.459E-05-0.989E-07
CGA:   9    -0.171593092898E+03   -0.14973E-05   -0.14966E-05  1200   0.114E-05-0.537E-07
  43 F= -.17159309E+03 E0= -.17159309E+03  d E =-.291886E-02
       N       E                     dE             d eps       ncg     rms          ort
SDA:   1    -0.171558208888E+03    0.34883E-01    0.00000E+00  1200   0.104E+00 0.000E+00
CGA:   2    -0.171587814645E+03   -0.29606E-01   -0.29606E-01  1200   0.158E-01 0.799E-05
CGA:   3    -0.171592573245E+03   -0.47586E-02   -0.47589E-02  1200   0.361E-02 0.831E-05
CGA:   4    -0.171593603833E+03   -0.10306E-02   -0.10308E-02  1200   0.708E-03 0.471E-05
CGA:   5    -0.171593850392E+03   -0.24656E-03   -0.24653E-03  1200   0.185E-03 0.221E-05
CGA:   6    -0.171593919124E+03   -0.68731E-04   -0.68655E-04  1200   0.617E-04 0.204E-05
CGA:   7    -0.171593941296E+03   -0.22172E-04   -0.22164E-04  1200   0.155E-04 0.411E-06
CGA:   8    -0.171593947029E+03   -0.57327E-05   -0.57355E-05  1200   0.381E-05-0.892E-07
CGA:   9    -0.171593948268E+03   -0.12387E-05   -0.12382E-05  1200   0.942E-06-0.469E-07
  44 F= -.17159395E+03 E0= -.17159395E+03  d E =-.377423E-02
       N       E                     dE             d eps       ncg     rms          ort
SDA:   1    -0.171591448269E+03    0.24988E-02    0.00000E+00  1200   0.887E-02 0.000E+00
CGA:   2    -0.171594107878E+03   -0.26596E-02   -0.26595E-02  1200   0.170E-02-0.341E-05
CGA:   3    -0.171594649159E+03   -0.54128E-03   -0.54122E-03  1200   0.344E-03-0.336E-05
CGA:   4    -0.171594749712E+03   -0.10055E-03   -0.10043E-03  1200   0.676E-04-0.282E-05
CGA:   5    -0.171594771434E+03   -0.21722E-04   -0.21713E-04  1200   0.185E-04-0.970E-06
CGA:   6    -0.171594778097E+03   -0.66635E-05   -0.66783E-05  1200   0.615E-05-0.439E-06
CGA:   7    -0.171594780343E+03   -0.22462E-05   -0.22536E-05  1200   0.162E-05-0.183E-06
CGA:   8    -0.171594780903E+03   -0.55926E-06   -0.55959E-06  1200   0.338E-06-0.183E-07
  45 F= -.17159478E+03 E0= -.17159478E+03  d E =-.832635E-03
       N       E                     dE             d eps       ncg     rms          ort
SDA:   1    -0.171571500730E+03    0.23280E-01    0.00000E+00  1200   0.645E-01 0.000E+00
CGA:   2    -0.171590839549E+03   -0.19339E-01   -0.19338E-01  1200   0.124E-01-0.954E-05
CGA:   3    -0.171594772646E+03   -0.39331E-02   -0.39329E-02  1200   0.250E-02-0.916E-05
CGA:   4    -0.171595499387E+03   -0.72674E-03   -0.72642E-03  1200   0.486E-03-0.754E-05
CGA:   5    -0.171595656114E+03   -0.15673E-03   -0.15671E-03  1200   0.132E-03-0.254E-05
CGA:   6    -0.171595703658E+03   -0.47544E-04   -0.47581E-04  1200   0.432E-04-0.116E-05
CGA:   7    -0.171595719567E+03   -0.15909E-04   -0.15928E-04  1200   0.113E-04-0.502E-06
CGA:   8    -0.171595723559E+03   -0.39929E-05   -0.39946E-05  1200   0.240E-05-0.714E-07
  46 F= -.17159572E+03 E0= -.17159572E+03  d E =-.177529E-02
       N       E                     dE             d eps       ncg     rms          ort
SDA:   1    -0.171589392143E+03    0.63274E-02    0.00000E+00  1200   0.191E-01 0.000E+00
CGA:   2    -0.171595135702E+03   -0.57436E-02   -0.57435E-02  1200   0.365E-02-0.233E-05
CGA:   3    -0.171596255215E+03   -0.11195E-02   -0.11194E-02  1200   0.719E-03-0.585E-05
CGA:   4    -0.171596464201E+03   -0.20899E-03   -0.20885E-03  1200   0.123E-03-0.326E-05
CGA:   5    -0.171596503643E+03   -0.39442E-04   -0.39434E-04  1200   0.317E-04-0.988E-06
CGA:   6    -0.171596514880E+03   -0.11237E-04   -0.11255E-04  1200   0.106E-04-0.693E-06
CGA:   7    -0.171596518964E+03   -0.40844E-05   -0.41211E-05  1200   0.305E-05-0.572E-06
CGA:   8    -0.171596520006E+03   -0.10417E-05   -0.10434E-05  1200   0.680E-06-0.658E-07
  47 F= -.17159652E+03 E0= -.17159652E+03  d E =-.796447E-03
       N       E                     dE             d eps       ncg     rms          ort
SDA:   1    -0.171594558275E+03    0.19607E-02    0.00000E+00  1200   0.555E-02 0.000E+00
CGA:   2    -0.171596226587E+03   -0.16683E-02   -0.16683E-02  1200   0.106E-02-0.132E-05
CGA:   3    -0.171596551954E+03   -0.32537E-03   -0.32528E-03  1200   0.208E-03-0.314E-05
CGA:   4    -0.171596612771E+03   -0.60817E-04   -0.60745E-04  1200   0.355E-04-0.177E-05
CGA:   5    -0.171596624254E+03   -0.11482E-04   -0.11480E-04  1200   0.921E-05-0.538E-06
CGA:   6    -0.171596627546E+03   -0.32926E-05   -0.33058E-05  1200   0.318E-05-0.390E-06
CGA:   7    -0.171596628762E+03   -0.12161E-05   -0.12399E-05  1200   0.967E-06-0.317E-06
CGA:   8    -0.171596629070E+03   -0.30748E-06   -0.30799E-06  1200   0.205E-06-0.287E-07
  48 F= -.17159663E+03 E0= -.17159663E+03  d E =-.905510E-03
       N       E                     dE             d eps       ncg     rms          ort
SDA:   1    -0.171594246693E+03    0.23821E-02    0.00000E+00  1200   0.849E-02 0.000E+00
CGA:   2    -0.171596689598E+03   -0.24429E-02   -0.24430E-02  1200   0.142E-02 0.261E-05
CGA:   3    -0.171597126185E+03   -0.43659E-03   -0.43652E-03  1200   0.310E-03-0.251E-05
CGA:   4    -0.171597214088E+03   -0.87903E-04   -0.87899E-04  1200   0.625E-04-0.932E-07
CGA:   5    -0.171597233848E+03   -0.19759E-04   -0.19757E-04  1200   0.166E-04-0.194E-06
CGA:   6    -0.171597239846E+03   -0.59979E-05   -0.60006E-05  1200   0.522E-05-0.805E-07
CGA:   7    -0.171597241863E+03   -0.20171E-05   -0.20296E-05  1200   0.155E-05-0.208E-06
CGA:   8    -0.171597242357E+03   -0.49467E-06   -0.49457E-06  1200   0.406E-06-0.344E-07
  49 F= -.17159724E+03 E0= -.17159724E+03  d E =-.613287E-03
       N       E                     dE             d eps       ncg     rms          ort
SDA:   1    -0.171585659576E+03    0.11582E-01    0.00000E+00  1200   0.342E-01 0.000E+00
CGA:   2    -0.171595505203E+03   -0.98456E-02   -0.98458E-02  1200   0.572E-02 0.516E-05
CGA:   3    -0.171597263026E+03   -0.17578E-02   -0.17577E-02  1200   0.125E-02-0.495E-05
CGA:   4    -0.171597617392E+03   -0.35437E-03   -0.35435E-03  1200   0.252E-03-0.207E-06
CGA:   5    -0.171597696928E+03   -0.79536E-04   -0.79532E-04  1200   0.667E-04-0.347E-06
CGA:   6    -0.171597721044E+03   -0.24116E-04   -0.24122E-04  1200   0.209E-04-0.146E-06
CGA:   7    -0.171597729041E+03   -0.79967E-05   -0.80197E-05  1200   0.601E-05-0.410E-06
CGA:   8    -0.171597731005E+03   -0.19640E-05   -0.19642E-05  1200   0.159E-05-0.725E-07
  50 F= -.17159773E+03 E0= -.17159773E+03  d E =-.110194E-02
       N       E                     dE             d eps       ncg     rms          ort
SDA:   1    -0.171596574114E+03    0.11549E-02    0.00000E+00  1200   0.454E-02 0.000E+00
CGA:   2    -0.171597876713E+03   -0.13026E-02   -0.13026E-02  1200   0.787E-03 0.103E-05
CGA:   3    -0.171598116356E+03   -0.23964E-03   -0.23962E-03  1200   0.167E-03-0.775E-06
CGA:   4    -0.171598164902E+03   -0.48545E-04   -0.48527E-04  1200   0.320E-04-0.492E-06
CGA:   5    -0.171598175394E+03   -0.10493E-04   -0.10494E-04  1200   0.867E-05-0.346E-06
CGA:   6    -0.171598178484E+03   -0.30894E-05   -0.30890E-05  1200   0.263E-05 0.135E-07
CGA:   7    -0.171598179508E+03   -0.10244E-05   -0.10259E-05  1200   0.721E-06-0.246E-07
CGA:   8    -0.171598179755E+03   -0.24659E-06   -0.24683E-06  1200   0.205E-06-0.158E-07
  51 F= -.17159818E+03 E0= -.17159818E+03  d E =-.448750E-03
       N       E                     dE             d eps       ncg     rms          ort
SDA:   1    -0.171584689214E+03    0.13490E-01    0.00000E+00  1200   0.408E-01 0.000E+00
CGA:   2    -0.171596404350E+03   -0.11715E-01   -0.11715E-01  1200   0.709E-02 0.394E-05
CGA:   3    -0.171598558976E+03   -0.21546E-02   -0.21546E-02  1200   0.151E-02-0.228E-05
CGA:   4    -0.171598995367E+03   -0.43639E-03   -0.43634E-03  1200   0.289E-03-0.139E-05
CGA:   5    -0.171599089506E+03   -0.94139E-04   -0.94140E-04  1200   0.769E-04-0.963E-06
CGA:   6    -0.171599117188E+03   -0.27682E-04   -0.27678E-04  1200   0.236E-04 0.892E-07
CGA:   7    -0.171599126283E+03   -0.90954E-05   -0.90997E-05  1200   0.644E-05-0.738E-07
CGA:   8    -0.171599128465E+03   -0.21822E-05   -0.21826E-05  1200   0.180E-05-0.456E-07
  52 F= -.17159913E+03 E0= -.17159913E+03  d E =-.139746E-02
       N       E                     dE             d eps       ncg     rms          ort
SDA:   1    -0.171541504864E+03    0.57621E-01    0.00000E+00  1200   0.163E+00 0.000E+00
CGA:   2    -0.171588354883E+03   -0.46850E-01   -0.46850E-01  1200   0.284E-01 0.996E-05
CGA:   3    -0.171596974634E+03   -0.86198E-02   -0.86197E-02  1200   0.603E-02-0.384E-05
CGA:   4    -0.171598721095E+03   -0.17465E-02   -0.17464E-02  1200   0.116E-02-0.262E-05
CGA:   5    -0.171599097310E+03   -0.37622E-03   -0.37622E-03  1200   0.306E-03-0.170E-05
CGA:   6    -0.171599208259E+03   -0.11095E-03   -0.11094E-03  1200   0.946E-04 0.248E-06
CGA:   7    -0.171599244630E+03   -0.36371E-04   -0.36379E-04  1200   0.257E-04-0.146E-06
CGA:   8    -0.171599253337E+03   -0.87071E-05   -0.87082E-05  1200   0.713E-05-0.101E-06
CGA:   9    -0.171599255537E+03   -0.22004E-05   -0.22006E-05  1200   0.142E-05 0.140E-07
  53 F= -.17159926E+03 E0= -.17159926E+03  d E =-.152453E-02
       N       E                     dE             d eps       ncg     rms          ort
SDA:   1    -0.171588443019E+03    0.10810E-01    0.00000E+00  1200   0.312E-01 0.000E+00
CGA:   2    -0.171597408232E+03   -0.89652E-02   -0.89652E-02  1200   0.542E-02-0.139E-05
CGA:   3    -0.171599055694E+03   -0.16475E-02   -0.16475E-02  1200   0.115E-02 0.194E-05
CGA:   4    -0.171599388479E+03   -0.33279E-03   -0.33283E-03  1200   0.220E-03 0.131E-05
CGA:   5    -0.171599460005E+03   -0.71525E-04   -0.71526E-04  1200   0.574E-04 0.100E-05
CGA:   6    -0.171599481036E+03   -0.21032E-04   -0.21031E-04  1200   0.178E-04 0.596E-08
CGA:   7    -0.171599487844E+03   -0.68082E-05   -0.68043E-05  1200   0.475E-05 0.695E-07
CGA:   8    -0.171599489462E+03   -0.16173E-05   -0.16170E-05  1200   0.130E-05 0.344E-07
  54 F= -.17159949E+03 E0= -.17159949E+03  d E =-.175846E-02
       N       E                     dE             d eps       ncg     rms          ort
SDA:   1    -0.171595121179E+03    0.43667E-02    0.00000E+00  1200   0.140E-01 0.000E+00
CGA:   2    -0.171599104348E+03   -0.39832E-02   -0.39832E-02  1200   0.275E-02 0.109E-05
CGA:   3    -0.171599915506E+03   -0.81116E-03   -0.81113E-03  1200   0.580E-03-0.889E-06
CGA:   4    -0.171600084766E+03   -0.16926E-03   -0.16923E-03  1200   0.109E-03-0.790E-06
CGA:   5    -0.171600118865E+03   -0.34099E-04   -0.34090E-04  1200   0.292E-04-0.920E-06
CGA:   6    -0.171600128831E+03   -0.99668E-05   -0.99637E-05  1200   0.853E-05 0.151E-06
CGA:   7    -0.171600132157E+03   -0.33252E-05   -0.33245E-05  1200   0.246E-05 0.109E-07
CGA:   8    -0.171600132998E+03   -0.84105E-06   -0.84181E-06  1200   0.674E-06-0.533E-07
  55 F= -.17160013E+03 E0= -.17160013E+03  d E =-.643536E-03
       N       E                     dE             d eps       ncg     rms          ort
SDA:   1    -0.171556032424E+03    0.44100E-01    0.00000E+00  1200   0.126E+00 0.000E+00
CGA:   2    -0.171591888769E+03   -0.35856E-01   -0.35856E-01  1200   0.248E-01 0.249E-05
CGA:   3    -0.171599186234E+03   -0.72975E-02   -0.72975E-02  1200   0.521E-02-0.918E-06
CGA:   4    -0.171600707506E+03   -0.15213E-02   -0.15212E-02  1200   0.970E-03-0.219E-05
CGA:   5    -0.171601011648E+03   -0.30414E-03   -0.30412E-03  1200   0.261E-03-0.249E-05
CGA:   6    -0.171601102015E+03   -0.90367E-04   -0.90354E-04  1200   0.778E-04 0.548E-06
CGA:   7    -0.171601132205E+03   -0.30190E-04   -0.30188E-04  1200   0.224E-04 0.321E-07
CGA:   8    -0.171601139743E+03   -0.75372E-05   -0.75388E-05  1200   0.594E-05-0.161E-06
CGA:   9    -0.171601141673E+03   -0.19306E-05   -0.19306E-05  1200   0.117E-05-0.453E-07
  56 F= -.17160114E+03 E0= -.17160114E+03  d E =-.165221E-02
       N       E                     dE             d eps       ncg     rms          ort
SDA:   1    -0.171598638393E+03    0.25013E-02    0.00000E+00  1200   0.709E-02 0.000E+00
CGA:   2    -0.171600657900E+03   -0.20195E-02   -0.20195E-02  1200   0.139E-02 0.726E-06
CGA:   3    -0.171601068628E+03   -0.41073E-03   -0.41071E-03  1200   0.293E-03-0.662E-06
CGA:   4    -0.171601154297E+03   -0.85670E-04   -0.85651E-04  1200   0.549E-04-0.570E-06
CGA:   5    -0.171601171520E+03   -0.17223E-04   -0.17216E-04  1200   0.150E-04-0.678E-06
CGA:   6    -0.171601176622E+03   -0.51016E-05   -0.50997E-05  1200   0.440E-05 0.963E-07
CGA:   7    -0.171601178345E+03   -0.17234E-05   -0.17231E-05  1200   0.128E-05 0.491E-08
CGA:   8    -0.171601178786E+03   -0.44116E-06   -0.44188E-06  1200   0.361E-06-0.414E-07
  57 F= -.17160118E+03 E0= -.17160118E+03  d E =-.168932E-02
       N       E                     dE             d eps       ncg     rms          ort
SDA:   1    -0.171594617774E+03    0.65606E-02    0.00000E+00  1200   0.213E-01 0.000E+00
CGA:   2    -0.171600589076E+03   -0.59713E-02   -0.59712E-02  1200   0.377E-02-0.100E-05
CGA:   3    -0.171601706925E+03   -0.11178E-02   -0.11177E-02  1200   0.776E-03-0.393E-05
CGA:   4    -0.171601940521E+03   -0.23360E-03   -0.23354E-03  1200   0.144E-03-0.255E-05
CGA:   5    -0.171601988590E+03   -0.48069E-04   -0.48083E-04  1200   0.403E-04-0.130E-05
CGA:   6    -0.171602002912E+03   -0.14322E-04   -0.14337E-04  1200   0.125E-04-0.414E-06
CGA:   7    -0.171602007773E+03   -0.48615E-05   -0.48863E-05  1200   0.327E-05-0.354E-06
CGA:   8    -0.171602008888E+03   -0.11146E-05   -0.11155E-05  1200   0.827E-06-0.400E-07
  58 F= -.17160201E+03 E0= -.17160201E+03  d E =-.830102E-03
       N       E                     dE             d eps       ncg     rms          ort
SDA:   1    -0.171537068004E+03    0.64940E-01    0.00000E+00  1200   0.192E+00 0.000E+00
CGA:   2    -0.171590798345E+03   -0.53730E-01   -0.53729E-01  1200   0.340E-01-0.256E-05
CGA:   3    -0.171600853151E+03   -0.10055E-01   -0.10054E-01  1200   0.698E-02-0.123E-04
CGA:   4    -0.171602949394E+03   -0.20962E-02   -0.20961E-02  1200   0.130E-02-0.704E-05
CGA:   5    -0.171603379771E+03   -0.43038E-03   -0.43041E-03  1200   0.359E-03-0.352E-05
CGA:   6    -0.171603507947E+03   -0.12818E-03   -0.12821E-03  1200   0.111E-03-0.110E-05
CGA:   7    -0.171603551014E+03   -0.43067E-04   -0.43134E-04  1200   0.287E-04-0.105E-05
CGA:   8    -0.171603560971E+03   -0.99571E-05   -0.99603E-05  1200   0.745E-05-0.152E-06
CGA:   9    -0.171603563308E+03   -0.23366E-05   -0.23375E-05  1200   0.154E-05 0.576E-07
  59 F= -.17160356E+03 E0= -.17160356E+03  d E =-.238452E-02
       N       E                     dE             d eps       ncg     rms          ort
SDA:   1    -0.171336431503E+03    0.26713E+00    0.00000E+00  1200   0.768E+00 0.000E+00
CGA:   2    -0.171551324698E+03   -0.21489E+00   -0.21488E+00  1200   0.136E+00-0.998E-05
CGA:   3    -0.171591572886E+03   -0.40248E-01   -0.40247E-01  1200   0.279E-01-0.251E-04
CGA:   4    -0.171599950748E+03   -0.83779E-02   -0.83776E-02  1200   0.520E-02-0.106E-04
CGA:   5    -0.171601673253E+03   -0.17225E-02   -0.17225E-02  1200   0.144E-02-0.559E-05
CGA:   6    -0.171602186891E+03   -0.51364E-03   -0.51369E-03  1200   0.444E-03-0.173E-05
CGA:   7    -0.171602358809E+03   -0.17192E-03   -0.17204E-03  1200   0.115E-03-0.206E-05
CGA:   8    -0.171602398684E+03   -0.39875E-04   -0.39881E-04  1200   0.302E-04-0.364E-06
CGA:   9    -0.171602408231E+03   -0.95466E-05   -0.95475E-05  1200   0.625E-05 0.676E-07
CGA:  10    -0.171602410510E+03   -0.22793E-05   -0.22816E-05  1200   0.163E-05-0.689E-07
  60 F= -.17160241E+03 E0= -.17160241E+03  d E =-.123172E-02
       N       E                     dE             d eps       ncg     rms          ort
SDA:   1    -0.171473548359E+03    0.12886E+00    0.00000E+00  1200   0.376E+00 0.000E+00
CGA:   2    -0.171578859866E+03   -0.10531E+00   -0.10532E+00  1200   0.664E-01 0.265E-04
CGA:   3    -0.171598526755E+03   -0.19667E-01   -0.19668E-01  1200   0.136E-01 0.193E-04
CGA:   4    -0.171602622616E+03   -0.40959E-02   -0.40962E-02  1200   0.253E-02 0.998E-05
CGA:   5    -0.171603459372E+03   -0.83676E-03   -0.83674E-03  1200   0.693E-03 0.636E-05
CGA:   6    -0.171603707931E+03   -0.24856E-03   -0.24850E-03  1200   0.213E-03 0.220E-05
CGA:   7    -0.171603790574E+03   -0.82643E-04   -0.82564E-04  1200   0.539E-04 0.143E-05
CGA:   8    -0.171603809765E+03   -0.19191E-04   -0.19188E-04  1200   0.142E-04 0.158E-06
CGA:   9    -0.171603814372E+03   -0.46072E-05   -0.46055E-05  1200   0.308E-05-0.154E-06
  61 F= -.17160381E+03 E0= -.17160381E+03  d E =-.263559E-02
       N       E                     dE             d eps       ncg     rms          ort
SDA:   1    -0.171595109373E+03    0.87004E-02    0.00000E+00  1200   0.273E-01 0.000E+00
CGA:   2    -0.171602751769E+03   -0.76424E-02   -0.76423E-02  1200   0.496E-02-0.137E-05
CGA:   3    -0.171604222002E+03   -0.14702E-02   -0.14701E-02  1200   0.101E-02-0.277E-05
CGA:   4    -0.171604522327E+03   -0.30032E-03   -0.30024E-03  1200   0.186E-03-0.251E-05
CGA:   5    -0.171604582936E+03   -0.60609E-04   -0.60607E-04  1200   0.500E-04-0.651E-06
CGA:   6    -0.171604600669E+03   -0.17734E-04   -0.17749E-04  1200   0.156E-04-0.541E-06
CGA:   7    -0.171604606630E+03   -0.59601E-05   -0.59741E-05  1200   0.439E-05-0.248E-06
CGA:   8    -0.171604608072E+03   -0.14429E-05   -0.14430E-05  1200   0.116E-05-0.128E-07
  62 F= -.17160461E+03 E0= -.17160461E+03  d E =-.793700E-03
       N       E                     dE             d eps       ncg     rms          ort
SDA:   1    -0.171580362636E+03    0.24244E-01    0.00000E+00  1200   0.711E-01 0.000E+00
CGA:   2    -0.171600259471E+03   -0.19897E-01   -0.19897E-01  1200   0.129E-01-0.127E-05
CGA:   3    -0.171604081573E+03   -0.38221E-02   -0.38219E-02  1200   0.263E-02-0.481E-05
CGA:   4    -0.171604860925E+03   -0.77935E-03   -0.77923E-03  1200   0.482E-03-0.397E-05
CGA:   5    -0.171605017819E+03   -0.15689E-03   -0.15689E-03  1200   0.130E-03-0.103E-05
CGA:   6    -0.171605064073E+03   -0.46254E-04   -0.46281E-04  1200   0.408E-04-0.864E-06
CGA:   7    -0.171605079704E+03   -0.15631E-04   -0.15656E-04  1200   0.114E-04-0.419E-06
CGA:   8    -0.171605083500E+03   -0.37960E-05   -0.37961E-05  1200   0.305E-05-0.328E-07
  63 F= -.17160508E+03 E0= -.17160508E+03  d E =-.126913E-02
       N       E                     dE             d eps       ncg     rms          ort
SDA:   1    -0.171602826980E+03    0.22527E-02    0.00000E+00  1200   0.801E-02 0.000E+00
CGA:   2    -0.171605010006E+03   -0.21830E-02   -0.21831E-02  1200   0.141E-02 0.171E-05
CGA:   3    -0.171605423511E+03   -0.41351E-03   -0.41360E-03  1200   0.283E-03 0.267E-05
CGA:   4    -0.171605509877E+03   -0.86366E-04   -0.86400E-04  1200   0.512E-04 0.165E-05
CGA:   5    -0.171605527067E+03   -0.17191E-04   -0.17186E-04  1200   0.142E-04 0.550E-06
CGA:   6    -0.171605532065E+03   -0.49978E-05   -0.49859E-05  1200   0.415E-05 0.517E-06
CGA:   7    -0.171605533734E+03   -0.16685E-05   -0.16566E-05  1200   0.104E-05 0.200E-06
CGA:   8    -0.171605534135E+03   -0.40125E-06   -0.40106E-06  1200   0.297E-06 0.461E-08
  64 F= -.17160553E+03 E0= -.17160553E+03  d E =-.450635E-03
       N       E                     dE             d eps       ncg     rms          ort
SDA:   1    -0.171582035134E+03    0.23499E-01    0.00000E+00  1200   0.720E-01 0.000E+00
CGA:   2    -0.171601671185E+03   -0.19636E-01   -0.19637E-01  1200   0.127E-01 0.860E-05
CGA:   3    -0.171605401823E+03   -0.37306E-02   -0.37309E-02  1200   0.256E-02 0.794E-05
CGA:   4    -0.171606183434E+03   -0.78161E-03   -0.78172E-03  1200   0.469E-03 0.503E-05
CGA:   5    -0.171606339771E+03   -0.15634E-03   -0.15632E-03  1200   0.129E-03 0.179E-05
CGA:   6    -0.171606385530E+03   -0.45759E-04   -0.45716E-04  1200   0.386E-04 0.159E-05
CGA:   7    -0.171606400778E+03   -0.15248E-04   -0.15210E-04  1200   0.971E-05 0.612E-06
CGA:   8    -0.171606404350E+03   -0.35717E-05   -0.35715E-05  1200   0.263E-05 0.614E-08
  65 F= -.17160640E+03 E0= -.17160640E+03  d E =-.132085E-02
       N       E                     dE             d eps       ncg     rms          ort
SDA:   1    -0.171508529290E+03    0.97871E-01    0.00000E+00  1200   0.288E+00 0.000E+00
CGA:   2    -0.171587051311E+03   -0.78522E-01   -0.78525E-01  1200   0.509E-01 0.364E-04
CGA:   3    -0.171601977132E+03   -0.14926E-01   -0.14926E-01  1200   0.102E-01 0.161E-04
CGA:   4    -0.171605105463E+03   -0.31283E-02   -0.31286E-02  1200   0.188E-02 0.107E-04
CGA:   5    -0.171605732103E+03   -0.62664E-03   -0.62661E-03  1200   0.518E-03 0.403E-05
CGA:   6    -0.171605916362E+03   -0.18426E-03   -0.18416E-03  1200   0.156E-03 0.335E-05
CGA:   7    -0.171605977821E+03   -0.61459E-04   -0.61381E-04  1200   0.394E-04 0.122E-05
CGA:   8    -0.171605992144E+03   -0.14323E-04   -0.14324E-04  1200   0.105E-04-0.113E-07
CGA:   9    -0.171605995560E+03   -0.34158E-05   -0.34152E-05  1200   0.229E-05-0.992E-07
  66 F= -.17160600E+03 E0= -.17160600E+03  d E =-.912059E-03
       N       E                     dE             d eps       ncg     rms          ort
SDA:   1    -0.171567235590E+03    0.38757E-01    0.00000E+00  1200   0.116E+00 0.000E+00
CGA:   2    -0.171598939817E+03   -0.31704E-01   -0.31704E-01  1200   0.205E-01-0.677E-05
CGA:   3    -0.171604961739E+03   -0.60219E-02   -0.60216E-02  1200   0.414E-02-0.990E-05
CGA:   4    -0.171606228271E+03   -0.12665E-02   -0.12664E-02  1200   0.761E-03-0.616E-05
CGA:   5    -0.171606482624E+03   -0.25435E-03   -0.25437E-03  1200   0.209E-03-0.174E-05
CGA:   6    -0.171606557385E+03   -0.74761E-04   -0.74816E-04  1200   0.638E-04-0.179E-05
CGA:   7    -0.171606582277E+03   -0.24891E-04   -0.24940E-04  1200   0.160E-04-0.755E-06
CGA:   8    -0.171606587983E+03   -0.57067E-05   -0.57069E-05  1200   0.402E-05-0.671E-08
CGA:   9    -0.171606589292E+03   -0.13088E-05   -0.13091E-05  1200   0.856E-06 0.350E-07
  67 F= -.17160659E+03 E0= -.17160659E+03  d E =-.150579E-02
       N       E                     dE             d eps       ncg     rms          ort
SDA:   1    -0.171593075354E+03    0.13513E-01    0.00000E+00  1200   0.401E-01 0.000E+00
CGA:   2    -0.171604137532E+03   -0.11062E-01   -0.11062E-01  1200   0.820E-02 0.241E-05
CGA:   3    -0.171606534812E+03   -0.23973E-02   -0.23974E-02  1200   0.156E-02 0.439E-05
CGA:   4    -0.171607015116E+03   -0.48030E-03   -0.48036E-03  1200   0.278E-03 0.242E-05
CGA:   5    -0.171607103549E+03   -0.88432E-04   -0.88440E-04  1200   0.767E-04 0.677E-06
CGA:   6    -0.171607130092E+03   -0.26544E-04   -0.26530E-04  1200   0.218E-04 0.805E-06
CGA:   7    -0.171607138960E+03   -0.88680E-05   -0.88405E-05  1200   0.574E-05 0.377E-06
CGA:   8    -0.171607141090E+03   -0.21300E-05   -0.21297E-05  1200   0.156E-05 0.657E-08
  68 F= -.17160714E+03 E0= -.17160714E+03  d E =-.551798E-03
       N       E                     dE             d eps       ncg     rms          ort
SDA:   1    -0.171606474172E+03    0.66479E-03    0.00000E+00  1200   0.195E-02 0.000E+00
CGA:   2    -0.171607012916E+03   -0.53874E-03   -0.53875E-03  1200   0.398E-03 0.136E-06
CGA:   3    -0.171607128995E+03   -0.11608E-03   -0.11612E-03  1200   0.756E-04 0.975E-06
CGA:   4    -0.171607152241E+03   -0.23246E-04   -0.23258E-04  1200   0.132E-04 0.512E-06
CGA:   5    -0.171607156485E+03   -0.42444E-05   -0.42455E-05  1200   0.370E-05 0.137E-06
CGA:   6    -0.171607157751E+03   -0.12661E-05   -0.12643E-05  1200   0.103E-05 0.170E-06
CGA:   7    -0.171607158173E+03   -0.42210E-06   -0.41706E-06  1200   0.262E-06 0.833E-07
CGA:   8    -0.171607158280E+03   -0.10700E-06   -0.10678E-06  1200   0.785E-07 0.487E-08
  69 F= -.17160716E+03 E0= -.17160716E+03  d E =-.568988E-03
       N       E                     dE             d eps       ncg     rms          ort
SDA:   1    -0.171597690150E+03    0.94680E-02    0.00000E+00  1200   0.296E-01 0.000E+00
CGA:   2    -0.171605654317E+03   -0.79642E-02   -0.79641E-02  1200   0.579E-02-0.374E-05
CGA:   3    -0.171607367651E+03   -0.17133E-02   -0.17133E-02  1200   0.112E-02-0.185E-06
CGA:   4    -0.171607719267E+03   -0.35162E-03   -0.35160E-03  1200   0.213E-03-0.134E-05
CGA:   5    -0.171607787420E+03   -0.68153E-04   -0.68154E-04  1200   0.613E-04 0.179E-06
CGA:   6    -0.171607808742E+03   -0.21322E-04   -0.21328E-04  1200   0.180E-04-0.316E-06
CGA:   7    -0.171607815815E+03   -0.70730E-05   -0.70741E-05  1200   0.474E-05-0.168E-07
CGA:   8    -0.171607817455E+03   -0.16402E-05   -0.16396E-05  1200   0.124E-05 0.328E-07
  70 F= -.17160782E+03 E0= -.17160782E+03  d E =-.659174E-03
       N       E                     dE             d eps       ncg     rms          ort
SDA:   1    -0.171546596012E+03    0.61220E-01    0.00000E+00  1200   0.181E+00 0.000E+00
CGA:   2    -0.171595258199E+03   -0.48662E-01   -0.48665E-01  1200   0.354E-01 0.378E-05
CGA:   3    -0.171605724761E+03   -0.10467E-01   -0.10466E-01  1200   0.687E-02-0.189E-05
CGA:   4    -0.171607871047E+03   -0.21463E-02   -0.21462E-02  1200   0.130E-02-0.276E-05
CGA:   5    -0.171608287930E+03   -0.41688E-03   -0.41689E-03  1200   0.375E-03 0.683E-06
CGA:   6    -0.171608417792E+03   -0.12986E-03   -0.12988E-03  1200   0.109E-03-0.658E-06
CGA:   7    -0.171608460986E+03   -0.43194E-04   -0.43196E-04  1200   0.290E-04-0.333E-07
CGA:   8    -0.171608471051E+03   -0.10064E-04   -0.10063E-04  1200   0.765E-05 0.711E-07
CGA:   9    -0.171608473553E+03   -0.25020E-05   -0.25021E-05  1200   0.164E-05 0.256E-07
  71 F= -.17160847E+03 E0= -.17160847E+03  d E =-.131527E-02
       N       E                     dE             d eps       ncg     rms          ort
SDA:   1    -0.171597285330E+03    0.11186E-01    0.00000E+00  1200   0.336E-01 0.000E+00
CGA:   2    -0.171606603619E+03   -0.93183E-02   -0.93183E-02  1200   0.638E-02-0.161E-05
CGA:   3    -0.171608476277E+03   -0.18727E-02   -0.18727E-02  1200   0.128E-02 0.223E-05
CGA:   4    -0.171608856050E+03   -0.37977E-03   -0.37981E-03  1200   0.228E-03 0.119E-05
CGA:   5    -0.171608929178E+03   -0.73128E-04   -0.73134E-04  1200   0.595E-04 0.112E-05
CGA:   6    -0.171608950211E+03   -0.21033E-04   -0.21030E-04  1200   0.184E-04 0.145E-06
CGA:   7    -0.171608957345E+03   -0.71339E-05   -0.71256E-05  1200   0.523E-05 0.139E-06
CGA:   8    -0.171608959139E+03   -0.17943E-05   -0.17937E-05  1200   0.140E-05 0.605E-07
  72 F= -.17160896E+03 E0= -.17160896E+03  d E =-.485587E-03
       N       E                     dE             d eps       ncg     rms          ort
SDA:   1    -0.171607701515E+03    0.12558E-02    0.00000E+00  1200   0.371E-02 0.000E+00
CGA:   2    -0.171608730443E+03   -0.10289E-02   -0.10289E-02  1200   0.703E-03-0.952E-06
CGA:   3    -0.171608936706E+03   -0.20626E-03   -0.20629E-03  1200   0.141E-03 0.769E-06
CGA:   4    -0.171608978493E+03   -0.41786E-04   -0.41798E-04  1200   0.246E-04 0.399E-06
CGA:   5    -0.171608986453E+03   -0.79607E-05   -0.79611E-05  1200   0.636E-05 0.351E-06
CGA:   6    -0.171608988761E+03   -0.23076E-05   -0.23062E-05  1200   0.200E-05 0.437E-07
CGA:   7    -0.171608989534E+03   -0.77276E-06   -0.77000E-06  1200   0.549E-06 0.484E-07
CGA:   8    -0.171608989724E+03   -0.19065E-06   -0.19042E-06  1200   0.143E-06 0.211E-07
  73 F= -.17160899E+03 E0= -.17160899E+03  d E =-.516172E-03
       N       E                     dE             d eps       ncg     rms          ort
SDA:   1    -0.171606808373E+03    0.21812E-02    0.00000E+00  1200   0.725E-02 0.000E+00
CGA:   2    -0.171608807463E+03   -0.19991E-02   -0.19992E-02  1200   0.130E-02 0.134E-05
CGA:   3    -0.171609185799E+03   -0.37834E-03   -0.37852E-03  1200   0.272E-03 0.514E-05
CGA:   4    -0.171609268127E+03   -0.82328E-04   -0.82408E-04  1200   0.490E-04 0.337E-05
CGA:   5    -0.171609284618E+03   -0.16491E-04   -0.16476E-04  1200   0.133E-04 0.176E-05
CGA:   6    -0.171609289401E+03   -0.47827E-05   -0.47670E-05  1200   0.409E-05 0.689E-06
CGA:   7    -0.171609290988E+03   -0.15876E-05   -0.15745E-05  1200   0.988E-06 0.326E-06
CGA:   8    -0.171609291372E+03   -0.38365E-06   -0.38190E-06  1200   0.273E-06 0.583E-07
  74 F= -.17160929E+03 E0= -.17160929E+03  d E =-.301647E-03
       N       E                     dE             d eps       ncg     rms          ort
SDA:   1    -0.171603571785E+03    0.57192E-02    0.00000E+00  1200   0.172E-01 0.000E+00
CGA:   2    -0.171608312419E+03   -0.47406E-02   -0.47408E-02  1200   0.308E-02 0.251E-05
CGA:   3    -0.171609211275E+03   -0.89886E-03   -0.89914E-03  1200   0.648E-03 0.790E-05
CGA:   4    -0.171609407584E+03   -0.19631E-03   -0.19643E-03  1200   0.117E-03 0.521E-05
CGA:   5    -0.171609447174E+03   -0.39589E-04   -0.39559E-04  1200   0.320E-04 0.274E-05
CGA:   6    -0.171609458685E+03   -0.11511E-04   -0.11484E-04  1200   0.997E-05 0.106E-05
CGA:   7    -0.171609462535E+03   -0.38503E-05   -0.38278E-05  1200   0.240E-05 0.496E-06
CGA:   8    -0.171609463455E+03   -0.91945E-06   -0.91683E-06  1200   0.651E-06 0.755E-07
  75 F= -.17160946E+03 E0= -.17160946E+03  d E =-.473730E-03
       N       E                     dE             d eps       ncg     rms          ort
SDA:   1    -0.171606595702E+03    0.28668E-02    0.00000E+00  1200   0.888E-02 0.000E+00
CGA:   2    -0.171609036705E+03   -0.24410E-02   -0.24410E-02  1200   0.174E-02-0.598E-06
CGA:   3    -0.171609552906E+03   -0.51620E-03   -0.51639E-03  1200   0.350E-03 0.592E-05
CGA:   4    -0.171609660479E+03   -0.10757E-03   -0.10763E-03  1200   0.599E-04 0.291E-05
CGA:   5    -0.171609680519E+03   -0.20041E-04   -0.20034E-04  1200   0.165E-04 0.106E-05
CGA:   6    -0.171609686205E+03   -0.56857E-05   -0.56777E-05  1200   0.496E-05 0.667E-06
CGA:   7    -0.171609688115E+03   -0.19101E-05   -0.18918E-05  1200   0.115E-05 0.455E-06
CGA:   8    -0.171609688585E+03   -0.47027E-06   -0.46717E-06  1200   0.310E-06 0.706E-07
  76 F= -.17160969E+03 E0= -.17160969E+03  d E =-.225131E-03
       N       E                     dE             d eps       ncg     rms          ort
SDA:   1    -0.171608888971E+03    0.79914E-03    0.00000E+00  1200   0.238E-02 0.000E+00
CGA:   2    -0.171609544321E+03   -0.65535E-03   -0.65533E-03  1200   0.468E-03-0.420E-06
CGA:   3    -0.171609682400E+03   -0.13808E-03   -0.13818E-03  1200   0.936E-04 0.308E-05
CGA:   4    -0.171609711081E+03   -0.28681E-04   -0.28713E-04  1200   0.159E-04 0.150E-05
CGA:   5    -0.171609716388E+03   -0.53073E-05   -0.53054E-05  1200   0.433E-05 0.550E-06
CGA:   6    -0.171609717870E+03   -0.14821E-05   -0.14805E-05  1200   0.127E-05 0.340E-06
CGA:   7    -0.171609718347E+03   -0.47704E-06   -0.47267E-06  1200   0.295E-06 0.229E-06
CGA:   8    -0.171609718470E+03   -0.12319E-06   -0.12202E-06  1200   0.841E-07 0.505E-07
  77 F= -.17160972E+03 E0= -.17160972E+03  d E =-.255016E-03
       N       E                     dE             d eps       ncg     rms          ort
SDA:   1    -0.171605791024E+03    0.39273E-02    0.00000E+00  1200   0.114E-01 0.000E+00
CGA:   2    -0.171609073523E+03   -0.32825E-02   -0.32824E-02  1200   0.229E-02-0.271E-05
CGA:   3    -0.171609754671E+03   -0.68115E-03   -0.68126E-03  1200   0.472E-03 0.391E-05
CGA:   4    -0.171609891794E+03   -0.13712E-03   -0.13717E-03  1200   0.787E-04 0.133E-05
CGA:   5    -0.171609917962E+03   -0.26168E-04   -0.26163E-04  1200   0.204E-04 0.513E-06
CGA:   6    -0.171609925171E+03   -0.72095E-05   -0.72013E-05  1200   0.647E-05 0.292E-06
CGA:   7    -0.171609927612E+03   -0.24411E-05   -0.24280E-05  1200   0.163E-05 0.291E-06
CGA:   8    -0.171609928235E+03   -0.62238E-06   -0.62028E-06  1200   0.398E-06 0.562E-07
  78 F= -.17160993E+03 E0= -.17160993E+03  d E =-.209764E-03
       N       E                     dE             d eps       ncg     rms          ort
SDA:   1    -0.171609200072E+03    0.72754E-03    0.00000E+00  1200   0.207E-02 0.000E+00
CGA:   2    -0.171609794061E+03   -0.59399E-03   -0.59394E-03  1200   0.413E-03-0.128E-05
CGA:   3    -0.171609916816E+03   -0.12276E-03   -0.12281E-03  1200   0.848E-04 0.167E-05
CGA:   4    -0.171609941506E+03   -0.24690E-04   -0.24710E-04  1200   0.140E-04 0.562E-06
CGA:   5    -0.171609946189E+03   -0.46826E-05   -0.46811E-05  1200   0.363E-05 0.212E-06
CGA:   6    -0.171609947475E+03   -0.12864E-05   -0.12834E-05  1200   0.114E-05 0.123E-06
CGA:   7    -0.171609947895E+03   -0.42016E-06   -0.41684E-06  1200   0.275E-06 0.119E-06
CGA:   8    -0.171609948005E+03   -0.10946E-06   -0.10862E-06  1200   0.688E-07 0.277E-07
  79 F= -.17160995E+03 E0= -.17160995E+03  d E =-.229535E-03
       N       E                     dE             d eps       ncg     rms          ort
SDA:   1    -0.171607628383E+03    0.23195E-02    0.00000E+00  1200   0.716E-02 0.000E+00
CGA:   2    -0.171609672521E+03   -0.20441E-02   -0.20440E-02  1200   0.133E-02-0.289E-05
CGA:   3    -0.171610059102E+03   -0.38658E-03   -0.38663E-03  1200   0.302E-03 0.147E-05
CGA:   4    -0.171610144403E+03   -0.85301E-04   -0.85313E-04  1200   0.517E-04 0.269E-06
CGA:   5    -0.171610161230E+03   -0.16827E-04   -0.16826E-04  1200   0.136E-04 0.547E-06
CGA:   6    -0.171610165934E+03   -0.47035E-05   -0.47054E-05  1200   0.468E-05-0.103E-06
CGA:   7    -0.171610167636E+03   -0.17023E-05   -0.17015E-05  1200   0.126E-05 0.199E-07
CGA:   8    -0.171610168067E+03   -0.43129E-06   -0.43066E-06  1200   0.316E-06 0.413E-07
  80 F= -.17161017E+03 E0= -.17161017E+03  d E =-.220063E-03
       N       E                     dE             d eps       ncg     rms          ort
SDA:   1    -0.171596094003E+03    0.14074E-01    0.00000E+00  1200   0.403E-01 0.000E+00
CGA:   2    -0.171607586840E+03   -0.11493E-01   -0.11493E-01  1200   0.747E-02-0.524E-05
CGA:   3    -0.171609762509E+03   -0.21757E-02   -0.21758E-02  1200   0.170E-02 0.332E-05
CGA:   4    -0.171610242232E+03   -0.47972E-03   -0.47975E-03  1200   0.291E-03 0.704E-06
CGA:   5    -0.171610337371E+03   -0.95139E-04   -0.95132E-04  1200   0.771E-04 0.136E-05
CGA:   6    -0.171610363645E+03   -0.26274E-04   -0.26278E-04  1200   0.261E-04-0.230E-06
CGA:   7    -0.171610373218E+03   -0.95728E-05   -0.95708E-05  1200   0.706E-05 0.427E-07
CGA:   8    -0.171610375681E+03   -0.24627E-05   -0.24604E-05  1200   0.183E-05 0.964E-07
  81 F= -.17161038E+03 E0= -.17161038E+03  d E =-.427676E-03
       N       E                     dE             d eps       ncg     rms          ort
SDA:   1    -0.171606588594E+03    0.37846E-02    0.00000E+00  1200   0.116E-01 0.000E+00
CGA:   2    -0.171609880757E+03   -0.32922E-02   -0.32922E-02  1200   0.185E-02-0.643E-06
CGA:   3    -0.171610440112E+03   -0.55935E-03   -0.55943E-03  1200   0.423E-03 0.351E-05
CGA:   4    -0.171610560801E+03   -0.12069E-03   -0.12076E-03  1200   0.784E-04 0.186E-05
CGA:   5    -0.171610588426E+03   -0.27625E-04   -0.27594E-04  1200   0.193E-04 0.104E-05
CGA:   6    -0.171610596008E+03   -0.75817E-05   -0.75599E-05  1200   0.669E-05 0.345E-06
CGA:   7    -0.171610598328E+03   -0.23198E-05   -0.23178E-05  1200   0.174E-05 0.137E-06
CGA:   8    -0.171610598967E+03   -0.63888E-06   -0.63797E-06  1200   0.384E-06 0.285E-07
  82 F= -.17161060E+03 E0= -.17161060E+03  d E =-.223286E-03
       N       E                     dE             d eps       ncg     rms          ort
SDA:   1    -0.171609483960E+03    0.11144E-02    0.00000E+00  1200   0.330E-02 0.000E+00
CGA:   2    -0.171610423424E+03   -0.93946E-03   -0.93944E-03  1200   0.528E-03-0.511E-06
CGA:   3    -0.171610582872E+03   -0.15945E-03   -0.15949E-03  1200   0.120E-03 0.186E-05
CGA:   4    -0.171610617223E+03   -0.34352E-04   -0.34391E-04  1200   0.221E-04 0.965E-06
CGA:   5    -0.171610625002E+03   -0.77791E-05   -0.77660E-05  1200   0.538E-05 0.548E-06
CGA:   6    -0.171610627133E+03   -0.21308E-05   -0.21207E-05  1200   0.186E-05 0.172E-06
CGA:   7    -0.171610627778E+03   -0.64515E-06   -0.64462E-06  1200   0.483E-06 0.812E-07
CGA:   8    -0.171610627958E+03   -0.18031E-06   -0.17981E-06  1200   0.106E-06 0.183E-07
  83 F= -.17161063E+03 E0= -.17161063E+03  d E =-.252278E-03
       N       E                     dE             d eps       ncg     rms          ort
SDA:   1    -0.171609008217E+03    0.16196E-02    0.00000E+00  1200   0.516E-02 0.000E+00
CGA:   2    -0.171610489068E+03   -0.14809E-02   -0.14808E-02  1200   0.831E-03-0.192E-06
CGA:   3    -0.171610742702E+03   -0.25363E-03   -0.25369E-03  1200   0.186E-03 0.239E-05
CGA:   4    -0.171610795206E+03   -0.52504E-04   -0.52557E-04  1200   0.338E-04 0.112E-05
CGA:   5    -0.171610807072E+03   -0.11866E-04   -0.11855E-04  1200   0.812E-05 0.513E-06
CGA:   6    -0.171610810274E+03   -0.32020E-05   -0.31841E-05  1200   0.263E-05 0.306E-06
CGA:   7    -0.171610811234E+03   -0.96030E-06   -0.95808E-06  1200   0.687E-06 0.112E-06
CGA:   8    -0.171610811495E+03   -0.26063E-06   -0.25999E-06  1200   0.147E-06 0.199E-07
  84 F= -.17161081E+03 E0= -.17161081E+03  d E =-.183536E-03
       N       E                     dE             d eps       ncg     rms          ort
SDA:   1    -0.171594915157E+03    0.15896E-01    0.00000E+00  1200   0.465E-01 0.000E+00
CGA:   2    -0.171608242119E+03   -0.13327E-01   -0.13327E-01  1200   0.749E-02 0.161E-05
CGA:   3    -0.171610530970E+03   -0.22889E-02   -0.22890E-02  1200   0.168E-02 0.716E-05
CGA:   4    -0.171611006182E+03   -0.47521E-03   -0.47538E-03  1200   0.308E-03 0.342E-05
CGA:   5    -0.171611114208E+03   -0.10803E-03   -0.10799E-03  1200   0.744E-04 0.162E-05
CGA:   6    -0.171611143653E+03   -0.29445E-04   -0.29385E-04  1200   0.247E-04 0.944E-06
CGA:   7    -0.171611152491E+03   -0.88375E-05   -0.88307E-05  1200   0.645E-05 0.326E-06
CGA:   8    -0.171611154870E+03   -0.23791E-05   -0.23777E-05  1200   0.134E-05 0.446E-07
  85 F= -.17161115E+03 E0= -.17161115E+03  d E =-.526911E-03
       N       E                     dE             d eps       ncg     rms          ort
SDA:   1    -0.171545962037E+03    0.65190E-01    0.00000E+00  1200   0.186E+00 0.000E+00
CGA:   2    -0.171599252035E+03   -0.53290E-01   -0.53292E-01  1200   0.300E-01 0.150E-04
CGA:   3    -0.171608419095E+03   -0.91671E-02   -0.91675E-02  1200   0.676E-02 0.145E-04
CGA:   4    -0.171610325953E+03   -0.19069E-02   -0.19072E-02  1200   0.123E-02 0.725E-05
CGA:   5    -0.171610759711E+03   -0.43376E-03   -0.43369E-03  1200   0.299E-03 0.347E-05
CGA:   6    -0.171610878317E+03   -0.11861E-03   -0.11848E-03  1200   0.996E-04 0.195E-05
CGA:   7    -0.171610913847E+03   -0.35530E-04   -0.35517E-04  1200   0.261E-04 0.640E-06
CGA:   8    -0.171610923415E+03   -0.95678E-05   -0.95657E-05  1200   0.534E-05 0.712E-07
CGA:   9    -0.171610925305E+03   -0.18896E-05   -0.18906E-05  1200   0.130E-05-0.607E-07
  86 F= -.17161093E+03 E0= -.17161093E+03  d E =-.297346E-03
       N       E                     dE             d eps       ncg     rms          ort
SDA:   1    -0.171581277872E+03    0.29646E-01    0.00000E+00  1200   0.856E-01 0.000E+00
CGA:   2    -0.171605838643E+03   -0.24561E-01   -0.24561E-01  1200   0.138E-01 0.609E-06
CGA:   3    -0.171610061266E+03   -0.42226E-02   -0.42224E-02  1200   0.311E-02-0.992E-05
CGA:   4    -0.171610938159E+03   -0.87689E-03   -0.87666E-03  1200   0.571E-03-0.447E-05
CGA:   5    -0.171611138834E+03   -0.20068E-03   -0.20071E-03  1200   0.139E-03-0.174E-05
CGA:   6    -0.171611193843E+03   -0.55009E-04   -0.55084E-04  1200   0.468E-04-0.112E-05
CGA:   7    -0.171611210321E+03   -0.16478E-04   -0.16486E-04  1200   0.122E-04-0.426E-06
CGA:   8    -0.171611214728E+03   -0.44071E-05   -0.44088E-05  1200   0.245E-05-0.624E-07
  87 F= -.17161121E+03 E0= -.17161121E+03  d E =-.586770E-03
       N       E                     dE             d eps       ncg     rms          ort
SDA:   1    -0.171607562788E+03    0.36475E-02    0.00000E+00  1200   0.106E-01 0.000E+00
CGA:   2    -0.171610648924E+03   -0.30861E-02   -0.30860E-02  1200   0.191E-02-0.270E-05
CGA:   3    -0.171611232602E+03   -0.58368E-03   -0.58368E-03  1200   0.417E-03 0.314E-07
CGA:   4    -0.171611348209E+03   -0.11561E-03   -0.11557E-03  1200   0.736E-04-0.627E-06
CGA:   5    -0.171611372397E+03   -0.24188E-04   -0.24187E-04  1200   0.180E-04-0.320E-06
CGA:   6    -0.171611378821E+03   -0.64239E-05   -0.64286E-05  1200   0.609E-05-0.170E-06
CGA:   7    -0.171611381025E+03   -0.22038E-05   -0.22060E-05  1200   0.170E-05-0.649E-07
CGA:   8    -0.171611381620E+03   -0.59566E-06   -0.59570E-06  1200   0.404E-06-0.259E-08
  88 F= -.17161138E+03 E0= -.17161138E+03  d E =-.166892E-03
       N       E                     dE             d eps       ncg     rms          ort
SDA:   1    -0.171609663691E+03    0.17173E-02    0.00000E+00  1200   0.485E-02 0.000E+00
CGA:   2    -0.171611076056E+03   -0.14124E-02   -0.14123E-02  1200   0.871E-03-0.191E-05
CGA:   3    -0.171611342587E+03   -0.26653E-03   -0.26653E-03  1200   0.189E-03 0.290E-07
CGA:   4    -0.171611395281E+03   -0.52693E-04   -0.52670E-04  1200   0.330E-04-0.432E-06
CGA:   5    -0.171611406235E+03   -0.10955E-04   -0.10956E-04  1200   0.821E-05-0.219E-06
CGA:   6    -0.171611409196E+03   -0.29606E-05   -0.29647E-05  1200   0.282E-05-0.119E-06
CGA:   7    -0.171611410214E+03   -0.10177E-05   -0.10192E-05  1200   0.785E-06-0.414E-07
CGA:   8    -0.171611410487E+03   -0.27326E-06   -0.27325E-06  1200   0.182E-06 0.186E-08
  89 F= -.17161141E+03 E0= -.17161141E+03  d E =-.195759E-03
       N       E                     dE             d eps       ncg     rms          ort
SDA:   1    -0.171608385551E+03    0.30247E-02    0.00000E+00  1200   0.927E-02 0.000E+00
CGA:   2    -0.171611027341E+03   -0.26418E-02   -0.26416E-02  1200   0.141E-02-0.331E-05
CGA:   3    -0.171611471966E+03   -0.44463E-03   -0.44460E-03  1200   0.307E-03-0.196E-05
CGA:   4    -0.171611561134E+03   -0.89168E-04   -0.89110E-04  1200   0.624E-04-0.149E-05
CGA:   5    -0.171611582391E+03   -0.21257E-04   -0.21271E-04  1200   0.168E-04-0.877E-06
CGA:   6    -0.171611588626E+03   -0.62346E-05   -0.62565E-05  1200   0.564E-05-0.433E-06
CGA:   7    -0.171611590599E+03   -0.19730E-05   -0.19790E-05  1200   0.145E-05-0.204E-06
CGA:   8    -0.171611591097E+03   -0.49859E-06   -0.49837E-06  1200   0.286E-06 0.110E-07
  90 F= -.17161159E+03 E0= -.17161159E+03  d E =-.180610E-03
       N       E                     dE             d eps       ncg     rms          ort
SDA:   1    -0.171606944926E+03    0.46457E-02    0.00000E+00  1200   0.137E-01 0.000E+00
CGA:   2    -0.171610835077E+03   -0.38902E-02   -0.38900E-02  1200   0.208E-02-0.401E-05
CGA:   3    -0.171611489563E+03   -0.65449E-03   -0.65445E-03  1200   0.452E-03-0.236E-05
CGA:   4    -0.171611620725E+03   -0.13116E-03   -0.13109E-03  1200   0.915E-04-0.180E-05
CGA:   5    -0.171611651926E+03   -0.31200E-04   -0.31216E-04  1200   0.245E-04-0.106E-05
CGA:   6    -0.171611661061E+03   -0.91358E-05   -0.91621E-05  1200   0.822E-05-0.527E-06
CGA:   7    -0.171611663943E+03   -0.28816E-05   -0.28887E-05  1200   0.211E-05-0.249E-06
CGA:   8    -0.171611664676E+03   -0.73272E-06   -0.73244E-06  1200   0.420E-06 0.110E-07
  91 F= -.17161166E+03 E0= -.17161166E+03  d E =-.254189E-03
       N       E                     dE             d eps       ncg     rms          ort
SDA:   1    -0.171610387248E+03    0.12767E-02    0.00000E+00  1200   0.385E-02 0.000E+00
CGA:   2    -0.171611513166E+03   -0.11259E-02   -0.11259E-02  1200   0.636E-03-0.159E-06
CGA:   3    -0.171611712957E+03   -0.19979E-03   -0.19979E-03  1200   0.140E-03 0.193E-06
CGA:   4    -0.171611751616E+03   -0.38659E-04   -0.38671E-04  1200   0.285E-04 0.208E-06
CGA:   5    -0.171611760769E+03   -0.91531E-05   -0.91528E-05  1200   0.735E-05-0.406E-07
CGA:   6    -0.171611763510E+03   -0.27410E-05   -0.27424E-05  1200   0.235E-05-0.298E-07
CGA:   7    -0.171611764392E+03   -0.88141E-06   -0.88387E-06  1200   0.656E-06-0.508E-07
CGA:   8    -0.171611764624E+03   -0.23242E-06   -0.23255E-06  1200   0.149E-06-0.237E-08
  92 F= -.17161176E+03 E0= -.17161176E+03  d E =-.999483E-04
       N       E                     dE             d eps       ncg     rms          ort
SDA:   1    -0.171611161759E+03    0.60263E-03    0.00000E+00  1200   0.174E-02 0.000E+00
CGA:   2    -0.171611669815E+03   -0.50806E-03   -0.50805E-03  1200   0.287E-03-0.135E-06
CGA:   3    -0.171611759961E+03   -0.90146E-04   -0.90148E-04  1200   0.631E-04 0.127E-06
CGA:   4    -0.171611777363E+03   -0.17402E-04   -0.17410E-04  1200   0.128E-04 0.134E-06
CGA:   5    -0.171611781478E+03   -0.41152E-05   -0.41150E-05  1200   0.330E-05-0.292E-07
CGA:   6    -0.171611782711E+03   -0.12329E-05   -0.12338E-05  1200   0.106E-05-0.202E-07
CGA:   7    -0.171611783110E+03   -0.39858E-06   -0.40025E-06  1200   0.298E-06-0.336E-07
CGA:   8    -0.171611783214E+03   -0.10373E-06   -0.10371E-06  1200   0.655E-07 0.111E-09
  93 F= -.17161178E+03 E0= -.17161178E+03  d E =-.118538E-03
       N       E                     dE             d eps       ncg     rms          ort
SDA:   1    -0.171611131590E+03    0.65152E-03    0.00000E+00  1200   0.217E-02 0.000E+00
CGA:   2    -0.171611735519E+03   -0.60393E-03   -0.60396E-03  1200   0.340E-03 0.456E-06
CGA:   3    -0.171611841042E+03   -0.10552E-03   -0.10554E-03  1200   0.758E-04 0.629E-06
CGA:   4    -0.171611862039E+03   -0.20996E-04   -0.21028E-04  1200   0.153E-04 0.569E-06
CGA:   5    -0.171611866896E+03   -0.48575E-05   -0.48564E-05  1200   0.422E-05-0.778E-07
CGA:   6    -0.171611868297E+03   -0.14008E-05   -0.14001E-05  1200   0.125E-05 0.144E-06
CGA:   7    -0.171611868788E+03   -0.49094E-06   -0.49031E-06  1200   0.353E-06 0.135E-07
CGA:   8    -0.171611868919E+03   -0.13134E-06   -0.13141E-06  1200   0.891E-07-0.201E-08
  94 F= -.17161187E+03 E0= -.17161187E+03  d E =-.857056E-04
       N       E                     dE             d eps       ncg     rms          ort
SDA:   1    -0.171608171758E+03    0.36970E-02    0.00000E+00  1200   0.111E-01 0.000E+00
CGA:   2    -0.171611262728E+03   -0.30910E-02   -0.30910E-02  1200   0.174E-02 0.112E-05
CGA:   3    -0.171611803290E+03   -0.54056E-03   -0.54059E-03  1200   0.388E-03 0.147E-05
CGA:   4    -0.171611911230E+03   -0.10794E-03   -0.10801E-03  1200   0.789E-04 0.131E-05
CGA:   5    -0.171611936015E+03   -0.24786E-04   -0.24783E-04  1200   0.215E-04-0.167E-06
CGA:   6    -0.171611943318E+03   -0.73027E-05   -0.72984E-05  1200   0.659E-05 0.335E-06
CGA:   7    -0.171611945842E+03   -0.25243E-05   -0.25231E-05  1200   0.182E-05 0.258E-07
CGA:   8    -0.171611946511E+03   -0.66860E-06   -0.66870E-06  1200   0.447E-06-0.300E-08
  95 F= -.17161195E+03 E0= -.17161195E+03  d E =-.163297E-03
       N       E                     dE             d eps       ncg     rms          ort
SDA:   1    -0.171611346075E+03    0.59977E-03    0.00000E+00  1200   0.190E-02 0.000E+00
CGA:   2    -0.171611861344E+03   -0.51527E-03   -0.51524E-03  1200   0.360E-03-0.461E-06
CGA:   3    -0.171611970805E+03   -0.10946E-03   -0.10946E-03  1200   0.766E-04-0.159E-06
CGA:   4    -0.171611993094E+03   -0.22289E-04   -0.22281E-04  1200   0.147E-04-0.205E-06
CGA:   5    -0.171611997706E+03   -0.46123E-05   -0.46058E-05  1200   0.429E-05-0.534E-06
CGA:   6    -0.171611999102E+03   -0.13954E-05   -0.13957E-05  1200   0.115E-05-0.262E-07
CGA:   7    -0.171611999550E+03   -0.44889E-06   -0.44757E-06  1200   0.296E-06 0.213E-07
CGA:   8    -0.171611999666E+03   -0.11571E-06   -0.11649E-06  1200   0.805E-07-0.136E-07
  96 F= -.17161200E+03 E0= -.17161200E+03  d E =-.531551E-04
       N       E                     dE             d eps       ncg     rms          ort
SDA:   1    -0.171611442674E+03    0.55688E-03    0.00000E+00  1200   0.167E-02 0.000E+00
CGA:   2    -0.171611894089E+03   -0.45142E-03   -0.45139E-03  1200   0.316E-03-0.427E-06
CGA:   3    -0.171611990086E+03   -0.95996E-04   -0.95993E-04  1200   0.673E-04-0.157E-06
CGA:   4    -0.171612009648E+03   -0.19562E-04   -0.19555E-04  1200   0.130E-04-0.181E-06
CGA:   5    -0.171612013719E+03   -0.40709E-05   -0.40644E-05  1200   0.378E-05-0.503E-06
CGA:   6    -0.171612014943E+03   -0.12240E-05   -0.12243E-05  1200   0.101E-05-0.253E-07
CGA:   7    -0.171612015335E+03   -0.39226E-06   -0.39099E-06  1200   0.258E-06 0.197E-07
CGA:   8    -0.171612015436E+03   -0.10157E-06   -0.10238E-06  1200   0.716E-07-0.137E-07
  97 F= -.17161202E+03 E0= -.17161202E+03  d E =-.689254E-04
       N       E                     dE             d eps       ncg     rms          ort
SDA:   1    -0.171611670872E+03    0.34446E-03    0.00000E+00  1200   0.108E-02 0.000E+00
CGA:   2    -0.171611969855E+03   -0.29898E-03   -0.29891E-03  1200   0.206E-03-0.130E-05
CGA:   3    -0.171612034209E+03   -0.64354E-04   -0.64324E-04  1200   0.421E-04-0.152E-05
CGA:   4    -0.171612047165E+03   -0.12956E-04   -0.12932E-04  1200   0.802E-05-0.114E-05
CGA:   5    -0.171612049825E+03   -0.26605E-05   -0.26672E-05  1200   0.257E-05-0.548E-06
CGA:   6    -0.171612050690E+03   -0.86483E-06   -0.87354E-06  1200   0.831E-06-0.250E-06
CGA:   7    -0.171612050981E+03   -0.29132E-06   -0.29765E-06  1200   0.226E-06-0.969E-07
CGA:   8    -0.171612051043E+03   -0.62140E-07   -0.62367E-07  1200   0.430E-07 0.849E-08
  98 F= -.17161205E+03 E0= -.17161205E+03  d E =-.356070E-04
       N       E                     dE             d eps       ncg     rms          ort
SDA:   1    -0.171611816752E+03    0.23423E-03    0.00000E+00  1200   0.687E-03 0.000E+00
CGA:   2    -0.171612007388E+03   -0.19064E-03   -0.19058E-03  1200   0.132E-03-0.106E-05
CGA:   3    -0.171612048427E+03   -0.41038E-04   -0.41021E-04  1200   0.269E-04-0.123E-05
CGA:   4    -0.171612056719E+03   -0.82923E-05   -0.82788E-05  1200   0.518E-05-0.914E-06
CGA:   5    -0.171612058446E+03   -0.17277E-05   -0.17376E-05  1200   0.171E-05-0.453E-06
CGA:   6    -0.171612059012E+03   -0.56579E-06   -0.57421E-06  1200   0.560E-06-0.201E-06
CGA:   7    -0.171612059204E+03   -0.19163E-06   -0.19687E-06  1200   0.153E-06-0.745E-07
CGA:   8    -0.171612059244E+03   -0.39697E-07   -0.39974E-07  1200   0.283E-07 0.919E-08
  99 F= -.17161206E+03 E0= -.17161206E+03  d E =-.438072E-04
       N       E                     dE             d eps       ncg     rms          ort
SDA:   1    -0.171611852359E+03    0.20684E-03    0.00000E+00  1200   0.753E-03 0.000E+00
CGA:   2    -0.171612048653E+03   -0.19629E-03   -0.19625E-03  1200   0.108E-03-0.661E-06
CGA:   3    -0.171612081497E+03   -0.32843E-04   -0.32820E-04  1200   0.243E-04-0.144E-05
CGA:   4    -0.171612088867E+03   -0.73704E-05   -0.73595E-05  1200   0.537E-05-0.775E-06
CGA:   5    -0.171612090692E+03   -0.18250E-05   -0.18442E-05  1200   0.190E-05-0.547E-06
CGA:   6    -0.171612091301E+03   -0.60909E-06   -0.61830E-06  1200   0.596E-06-0.229E-06
CGA:   7    -0.171612091513E+03   -0.21170E-06   -0.22766E-06  1200   0.211E-06-0.144E-06
CGA:   8    -0.171612091556E+03   -0.43585E-07   -0.44391E-07  1200   0.439E-07 0.150E-07
 100 F= -.17161209E+03 E0= -.17161209E+03  d E =-.323127E-04
       N       E                     dE             d eps       ncg     rms          ort
SDA:   1    -0.171611678785E+03    0.41273E-03    0.00000E+00  1200   0.135E-02 0.000E+00
CGA:   2    -0.171612030283E+03   -0.35150E-03   -0.35145E-03  1200   0.193E-03-0.898E-06
CGA:   3    -0.171612088862E+03   -0.58579E-04   -0.58555E-04  1200   0.431E-04-0.195E-05
CGA:   4    -0.171612101904E+03   -0.13042E-04   -0.13031E-04  1200   0.939E-05-0.105E-05
CGA:   5    -0.171612105085E+03   -0.31815E-05   -0.32070E-05  1200   0.319E-05-0.732E-06
CGA:   6    -0.171612106132E+03   -0.10469E-05   -0.10603E-05  1200   0.986E-06-0.310E-06
CGA:   7    -0.171612106488E+03   -0.35590E-06   -0.37629E-06  1200   0.321E-06-0.197E-06
CGA:   8    -0.171612106563E+03   -0.74745E-07   -0.75258E-07  1200   0.647E-07 0.160E-07
 101 F= -.17161211E+03 E0= -.17161211E+03  d E =-.473192E-04
