<?xml version="1.0" encoding="ISO-8859-1"?>
<modeling>
 <generator>
  <i name="program" type="string">vasp </i>
  <i name="version" type="string">6.3.1  </i>
  <i name="subversion" type="string">04May22 (build May 25 2022 13:42:54) complex                          parallel </i>
  <i name="platform" type="string">HPECrayEX_GCC </i>
  <i name="date" type="string">2022 09 20 </i>
  <i name="time" type="string">14:54:21 </i>
 </generator>
 <incar>
  <i type="string" name="SYSTEM">ortho-FASnI3</i>
  <i type="int" name="ISTART">     0</i>
  <i type="string" name="PREC">Accurate</i>
  <i type="string" name="ALGO">ALL</i>
  <i type="int" name="ISPIN">     1</i>
  <i type="int" name="NELM">   200</i>
  <i type="int" name="NELMIN">     8</i>
  <i type="int" name="IBRION">     2</i>
  <i name="EDIFF">      0.00000500</i>
  <i name="EDIFFG">     -0.01000000</i>
  <i type="int" name="NSW">  1000</i>
  <i type="int" name="ISIF">     3</i>
  <i type="int" name="ISYM">     0</i>
  <i name="ENCUT">   1000.00000000</i>
  <i type="logical" name="LREAL"> F  </i>
  <i type="int" name="ISMEAR">     0</i>
  <i name="SIGMA">      0.05000000</i>
  <i type="logical" name="LWAVE"> F  </i>
  <i type="logical" name="LCHARG"> F  </i>
  <i type="logical" name="LASPH"> T  </i>
  <i type="string" name="GGA">MK</i>
  <i name="PARAM1">      0.12340000</i>
  <i name="PARAM2">      1.00000000</i>
  <i type="logical" name="LUSE_VDW"> T  </i>
  <i name="AGGAC">      0.00000000</i>
 </incar>
 <primitive_cell>
  <structure name="primitive_cell" >
   <crystal>
    <varray name="basis" >
     <v>       8.83790000       0.00000000       0.00000000 </v>
     <v>       0.00000000       8.83790000       0.00000000 </v>
     <v>       0.00000000       0.00000000      12.40660000 </v>
    </varray>
    <i name="volume">    969.06062343 </i>
    <varray name="rec_basis" >
     <v>       0.11314905       0.00000000       0.00000000 </v>
     <v>       0.00000000       0.11314905       0.00000000 </v>
     <v>       0.00000000       0.00000000       0.08060226 </v>
    </varray>
   </crystal>
   <varray name="positions" >
    <v>       0.50000000       0.00000000       0.45600000 </v>
    <v>       0.00000000       0.50000000       0.45600000 </v>
    <v>       0.50000000       0.00000000       0.02300000 </v>
    <v>       0.00000000       0.50000000       0.02300000 </v>
    <v>       0.50000000       0.00000000       0.37940600 </v>
    <v>       0.00000000       0.50000000       0.37940600 </v>
    <v>       0.40231300       0.09768700       0.57297500 </v>
    <v>       0.59768700       0.90231300       0.57297500 </v>
    <v>       0.90231300       0.40231300       0.57297500 </v>
    <v>       0.09768700       0.59768700       0.57297500 </v>
    <v>       0.34839400       0.15160600       0.46278100 </v>
    <v>       0.65160600       0.84839400       0.46278100 </v>
    <v>       0.84839400       0.34839400       0.46278100 </v>
    <v>       0.15160600       0.65160600       0.46278100 </v>
    <v>       0.50000000       0.00000000       0.09951600 </v>
    <v>       0.00000000       0.50000000       0.09951600 </v>
    <v>       0.40226900       0.09773100       0.90607600 </v>
    <v>       0.59773100       0.90226900       0.90607600 </v>
    <v>       0.90226900       0.40226900       0.90607600 </v>
    <v>       0.09773100       0.59773100       0.90607600 </v>
    <v>       0.34845500       0.15154500       0.01632200 </v>
    <v>       0.65154500       0.84845500       0.01632200 </v>
    <v>       0.84845500       0.34845500       0.01632200 </v>
    <v>       0.15154500       0.65154500       0.01632200 </v>
    <v>       0.00000000       0.00000000       0.00835000 </v>
    <v>       0.50000000       0.50000000       0.00835000 </v>
    <v>       0.69870000       0.19870000       0.75040000 </v>
    <v>       0.30130000       0.80130000       0.75040000 </v>
    <v>       0.80130000       0.69870000       0.75040000 </v>
    <v>       0.19870000       0.30130000       0.75040000 </v>
    <v>       0.00000000       0.00000000       0.50970000 </v>
    <v>       0.50000000       0.50000000       0.50970000 </v>
    <v>       0.73403000       0.23403000       0.24900000 </v>
    <v>       0.26597000       0.76597000       0.24900000 </v>
    <v>       0.76597000       0.73403000       0.24900000 </v>
    <v>       0.23403000       0.26597000       0.24900000 </v>
    <v>       0.40690000       0.09310000       0.50200000 </v>
    <v>       0.59310000       0.90690000       0.50200000 </v>
    <v>       0.90690000       0.40690000       0.50200000 </v>
    <v>       0.09310000       0.59310000       0.50200000 </v>
    <v>       0.40700000       0.09300000       0.97700000 </v>
    <v>       0.59300000       0.90700000       0.97700000 </v>
    <v>       0.90700000       0.40700000       0.97700000 </v>
    <v>       0.09300000       0.59300000       0.97700000 </v>
    <v>       0.00000000       0.00000000       0.25380000 </v>
    <v>       0.50000000       0.50000000       0.25380000 </v>
    <v>       0.00000000       0.00000000       0.75370000 </v>
    <v>       0.50000000       0.50000000       0.75370000 </v>
   </varray>
  </structure>
  <varray name="primitive_index" >
   <v type="int" >        1 </v>
   <v type="int" >        2 </v>
   <v type="int" >        3 </v>
   <v type="int" >        4 </v>
   <v type="int" >        5 </v>
   <v type="int" >        6 </v>
   <v type="int" >        7 </v>
   <v type="int" >        8 </v>
   <v type="int" >        9 </v>
   <v type="int" >       10 </v>
   <v type="int" >       11 </v>
   <v type="int" >       12 </v>
   <v type="int" >       13 </v>
   <v type="int" >       14 </v>
   <v type="int" >       15 </v>
   <v type="int" >       16 </v>
   <v type="int" >       17 </v>
   <v type="int" >       18 </v>
   <v type="int" >       19 </v>
   <v type="int" >       20 </v>
   <v type="int" >       21 </v>
   <v type="int" >       22 </v>
   <v type="int" >       23 </v>
   <v type="int" >       24 </v>
   <v type="int" >       25 </v>
   <v type="int" >       26 </v>
   <v type="int" >       27 </v>
   <v type="int" >       28 </v>
   <v type="int" >       29 </v>
   <v type="int" >       30 </v>
   <v type="int" >       31 </v>
   <v type="int" >       32 </v>
   <v type="int" >       33 </v>
   <v type="int" >       34 </v>
   <v type="int" >       35 </v>
   <v type="int" >       36 </v>
   <v type="int" >       37 </v>
   <v type="int" >       38 </v>
   <v type="int" >       39 </v>
   <v type="int" >       40 </v>
   <v type="int" >       41 </v>
   <v type="int" >       42 </v>
   <v type="int" >       43 </v>
   <v type="int" >       44 </v>
   <v type="int" >       45 </v>
   <v type="int" >       46 </v>
   <v type="int" >       47 </v>
   <v type="int" >       48 </v>
  </varray>
 </primitive_cell>
 <kpoints>
  <generation param="Gamma">
   <v type="int" name="divisions">       3        3        2 </v>
   <v name="usershift">      0.00000000       0.00000000       0.00000000 </v>
   <v name="genvec1">      0.33333333       0.00000000       0.00000000 </v>
   <v name="genvec2">      0.00000000       0.33333333       0.00000000 </v>
   <v name="genvec3">      0.00000000       0.00000000       0.50000000 </v>
   <v name="shift">      0.00000000       0.00000000       0.00000000 </v>
  </generation>
  <varray name="kpointlist" >
   <v>       0.00000000       0.00000000       0.00000000 </v>
   <v>       0.33333333       0.00000000       0.00000000 </v>
   <v>       0.00000000       0.33333333       0.00000000 </v>
   <v>       0.33333333       0.33333333       0.00000000 </v>
   <v>      -0.33333333       0.33333333       0.00000000 </v>
   <v>       0.00000000       0.00000000       0.50000000 </v>
   <v>       0.33333333       0.00000000       0.50000000 </v>
   <v>       0.00000000       0.33333333       0.50000000 </v>
   <v>       0.33333333       0.33333333       0.50000000 </v>
   <v>      -0.33333333       0.33333333       0.50000000 </v>
  </varray>
  <varray name="weights" >
   <v>       0.05555556 </v>
   <v>       0.11111111 </v>
   <v>       0.11111111 </v>
   <v>       0.11111111 </v>
   <v>       0.11111111 </v>
   <v>       0.05555556 </v>
   <v>       0.11111111 </v>
   <v>       0.11111111 </v>
   <v>       0.11111111 </v>
   <v>       0.11111111 </v>
  </varray>
 </kpoints>
 <parameters>
  <separator name="general" >
   <i type="string" name="SYSTEM">ortho-FASnI3</i>
   <i type="logical" name="LCOMPAT"> F  </i>
  </separator>
  <separator name="electronic" >
   <i type="string" name="PREC">accura</i>
   <i name="ENMAX">   1000.00000000</i>
   <i name="ENAUG">    644.87300000</i>
   <i name="EDIFF">      0.00000500</i>
   <i type="int" name="IALGO">    58</i>
   <i type="int" name="IWAVPR">    11</i>
   <i type="int" name="NBANDS">   120</i>
   <i type="int" name="NBANDSLOW">    -1</i>
   <i type="int" name="NBANDSHIGH">    -1</i>
   <i name="NELECT">    176.00000000</i>
   <i type="int" name="TURBO">     0</i>
   <i type="int" name="IRESTART">     0</i>
   <i type="int" name="NREBOOT">     0</i>
   <i type="int" name="NMIN">     0</i>
   <i name="EREF">      0.00000000</i>
   <separator name="electronic smearing" >
    <i type="int" name="ISMEAR">     0</i>
    <i name="SIGMA">      0.05000000</i>
    <i name="KSPACING">      0.50000000</i>
    <i type="logical" name="KGAMMA"> T  </i>
    <i type="logical" name="KBLOWUP"> T  </i>
   </separator>
   <separator name="electronic projectors" >
    <i type="logical" name="LREAL"> F  </i>
    <v name="ROPT">      0.00000000      0.00000000      0.00000000      0.00000000      0.00000000</v>
    <i type="int" name="LMAXPAW">  -100</i>
    <i type="int" name="LMAXMIX">     2</i>
    <i type="logical" name="NLSPLINE"> F  </i>
   </separator>
   <separator name="electronic startup" >
    <i type="int" name="ISTART">     0</i>
    <i type="int" name="ICHARG">     2</i>
    <i type="int" name="INIWAV">     1</i>
   </separator>
   <separator name="electronic spin" >
    <i type="int" name="ISPIN">     1</i>
    <i type="logical" name="LNONCOLLINEAR"> F  </i>
    <v name="MAGMOM">      1.00000000      1.00000000      1.00000000      1.00000000      1.00000000      1.00000000      1.00000000      1.00000000      1.00000000      1.00000000      1.00000000      1.00000000      1.00000000      1.00000000      1.00000000      1.00000000      1.00000000      1.00000000      1.00000000      1.00000000
      1.00000000      1.00000000      1.00000000      1.00000000      1.00000000      1.00000000      1.00000000      1.00000000      1.00000000      1.00000000      1.00000000      1.00000000      1.00000000      1.00000000      1.00000000      1.00000000      1.00000000      1.00000000      1.00000000      1.00000000
      1.00000000      1.00000000      1.00000000      1.00000000      1.00000000      1.00000000      1.00000000      1.00000000</v>
    <i name="NUPDOWN">     -1.00000000</i>
    <i type="logical" name="LSORBIT"> F  </i>
    <v name="SAXIS">      0.00000000      0.00000000      1.00000000</v>
    <i type="logical" name="LSPIRAL"> F  </i>
    <v name="QSPIRAL">      0.00000000      0.00000000      0.00000000</v>
    <i type="logical" name="LZEROZ"> F  </i>
   </separator>
   <separator name="electronic exchange-correlation" >
    <i type="logical" name="LASPH"> T  </i>
    <i type="logical" name="LMETAGGA"> F  </i>
   </separator>
   <separator name="electronic convergence" >
    <i type="int" name="NELM">   200</i>
    <i type="int" name="NELMDL">    -5</i>
    <i type="int" name="NELMIN">     8</i>
    <i name="ENINI">   1000.00000000</i>
    <separator name="electronic convergence detail" >
     <i type="logical" name="LDIAG"> T  </i>
     <i type="logical" name="LSUBROT"> F  </i>
     <i name="WEIMIN">      0.00100000</i>
     <i name="EBREAK">      0.00000001</i>
     <i name="DEPER">      0.30000000</i>
     <i type="int" name="NRMM">     4</i>
     <i name="TIME">      0.40000000</i>
    </separator>
   </separator>
   <separator name="electronic mixer" >
    <i name="AMIX">      0.40000000</i>
    <i name="BMIX">      1.00000000</i>
    <i name="AMIN">      0.10000000</i>
    <i name="AMIX_MAG">      1.60000000</i>
    <i name="BMIX_MAG">      1.00000000</i>
    <separator name="electronic mixer details" >
     <i type="int" name="IMIX">     4</i>
     <i type="logical" name="MIXFIRST"> F  </i>
     <i type="int" name="MAXMIX">   -45</i>
     <i name="WC">    100.00000000</i>
     <i type="int" name="INIMIX">     1</i>
     <i type="int" name="MIXPRE">     1</i>
     <i type="int" name="MREMOVE">     5</i>
    </separator>
   </separator>
   <separator name="electronic dipolcorrection" >
    <i type="logical" name="LDIPOL"> F  </i>
    <i type="logical" name="LMONO"> F  </i>
    <i type="int" name="IDIPOL">     0</i>
    <i name="EPSILON">      1.00000000</i>
    <v name="DIPOL">   -100.00000000   -100.00000000   -100.00000000</v>
    <i name="EFIELD">      0.00000000</i>
   </separator>
  </separator>
  <separator name="grids" >
   <i type="int" name="NGX">    96</i>
   <i type="int" name="NGY">    96</i>
   <i type="int" name="NGZ">   128</i>
   <i type="int" name="NGXF">   192</i>
   <i type="int" name="NGYF">   192</i>
   <i type="int" name="NGZF">   256</i>
   <i type="logical" name="ADDGRID"> F  </i>
  </separator>
  <separator name="ionic" >
   <i type="int" name="NSW">  1000</i>
   <i type="int" name="IBRION">     2</i>
   <i type="int" name="MDALGO">     0</i>
   <i type="int" name="ISIF">     3</i>
   <i name="PSTRESS">      0.00000000</i>
   <i name="EDIFFG">     -0.01000000</i>
   <i type="int" name="NFREE">     1</i>
   <i name="POTIM">      0.50000000</i>
   <i name="SMASS">     -3.00000000</i>
   <i name="SCALEE">      1.00000000</i>
  </separator>
  <separator name="ionic md" >
   <i name="TEBEG">      0.00010000</i>
   <i name="TEEND">      0.00010000</i>
   <i type="int" name="NBLOCK">     1</i>
   <i type="int" name="KBLOCK">  1000</i>
   <i type="int" name="NPACO">   256</i>
   <i name="APACO">     10.00000000</i>
  </separator>
  <separator name="symmetry" >
   <i type="int" name="ISYM">     0</i>
   <i name="SYMPREC">      0.00001000</i>
  </separator>
  <separator name="dos" >
   <i type="int" name="LORBIT">     0</i>
   <v name="RWIGS">     -1.00000000     -1.00000000     -1.00000000     -1.00000000     -1.00000000</v>
   <i type="int" name="NEDOS">   301</i>
   <i name="EMIN">     10.00000000</i>
   <i name="EMAX">    -10.00000000</i>
   <i name="EFERMI">      0.00000000</i>
  </separator>
  <separator name="writing" >
   <i type="int" name="NWRITE">     2</i>
   <i type="logical" name="LWAVE"> F  </i>
   <i type="logical" name="LDOWNSAMPLE"> F  </i>
   <i type="logical" name="LCHARG"> F  </i>
   <i type="logical" name="LPARD"> F  </i>
   <i type="logical" name="LVTOT"> F  </i>
   <i type="logical" name="LVHAR"> F  </i>
   <i type="logical" name="LELF"> F  </i>
   <i type="logical" name="LOPTICS"> F  </i>
   <v name="STM">      0.00000000      0.00000000      0.00000000      0.00000000      0.00000000      0.00000000      0.00000000</v>
  </separator>
  <separator name="performance" >
   <i type="int" name="NPAR">     8</i>
   <i type="int" name="NSIM">     4</i>
   <i type="int" name="NBLK">    -1</i>
   <i type="logical" name="LPLANE"> T  </i>
   <i type="logical" name="LSCALAPACK"> T  </i>
   <i type="logical" name="LSCAAWARE"> F  </i>
   <i type="logical" name="LSCALU"> F  </i>
   <i type="logical" name="LASYNC"> F  </i>
   <i type="logical" name="LORBITALREAL"> F  </i>
  </separator>
  <separator name="miscellaneous" >
   <i type="int" name="IDIOT">     3</i>
   <i type="int" name="PHON_NSTRUCT">    -1</i>
   <i type="logical" name="LMUSIC"> F  </i>
   <v name="POMASS">     12.01100000      1.00000000    126.90400000     14.00100000    118.71000000</v>
   <v name="DARWINR">      0.00000000      0.00000000      0.00000000      0.00000000      0.00000000</v>
   <v name="DARWINV">      1.00000000      1.00000000      1.00000000      1.00000000      1.00000000</v>
   <i type="logical" name="LCORR"> T  </i>
  </separator>
  <i type="logical" name="GGA_COMPAT"> T  </i>
  <i type="logical" name="LBERRY"> F  </i>
  <i type="int" name="ICORELEVEL">     0</i>
  <i type="logical" name="LDAU"> F  </i>
  <i type="int" name="I_CONSTRAINED_M">     0</i>
  <separator name="electronic exchange-correlation" >
   <i type="string" name="GGA">MK</i>
   <i type="int" name="VOSKOWN">     0</i>
   <i type="logical" name="LHFCALC"> F  </i>
   <i type="string" name="PRECFOCK"></i>
   <i type="logical" name="LSYMGRAD"> F  </i>
   <i type="logical" name="LHFONE"> F  </i>
   <i type="logical" name="LRHFCALC"> F  </i>
   <i type="logical" name="LTHOMAS"> F  </i>
   <i type="logical" name="LMODELHF"> F  </i>
   <i type="logical" name="LFOCKACE"> F  </i>
   <i name="ENCUT4O">     -1.00000000</i>
   <i type="int" name="EXXOEP">     0</i>
   <i type="int" name="FOURORBIT">     0</i>
   <i name="AEXX">      0.00000000</i>
   <i name="HFALPHA">      0.00000000</i>
   <i name="MCALPHA">      0.00000000</i>
   <i name="ALDAX">      1.00000000</i>
   <i name="AGGAX">      1.00000000</i>
   <i name="ALDAC">      1.00000000</i>
   <i name="AGGAC">      0.00000000</i>
   <i type="int" name="NKREDX">     1</i>
   <i type="int" name="NKREDY">     1</i>
   <i type="int" name="NKREDZ">     1</i>
   <i type="logical" name="SHIFTRED"> F  </i>
   <i type="logical" name="ODDONLY"> F  </i>
   <i type="logical" name="EVENONLY"> F  </i>
   <i type="int" name="LMAXFOCK">     0</i>
   <i type="int" name="NMAXFOCKAE">     0</i>
   <i type="logical" name="LFOCKAEDFT"> F  </i>
   <i name="HFSCREEN">      0.00000000</i>
   <i name="HFSCREENC">      0.00000000</i>
   <i type="int" name="NBANDSGWLOW">     0</i>
  </separator>
  <separator name="vdW DFT" >
   <i type="logical" name="LUSE_VDW"> T  </i>
   <i name="Zab_VDW">     -0.84910000</i>
   <i name="PARAM1">      0.12340000</i>
   <i name="PARAM2">      1.00000000</i>
   <i name="PARAM3">      0.00000000</i>
  </separator>
  <separator name="model GW" >
   <i type="int" name="MODEL_GW">     0</i>
   <i name="MODEL_EPS0">     12.11325779</i>
   <i name="MODEL_ALPHA">      1.00000000</i>
  </separator>
  <separator name="linear response parameters" >
   <i type="logical" name="LEPSILON"> F  </i>
   <i type="logical" name="LRPA"> F  </i>
   <i type="logical" name="LNABLA"> F  </i>
   <i type="logical" name="LVEL"> F  </i>
   <i name="CSHIFT">      0.10000000</i>
   <i name="OMEGAMAX">     -1.00000000</i>
   <i name="DEG_THRESHOLD">      0.00200000</i>
   <i name="RTIME">     -0.10000000</i>
   <i name="WPLASMAI">      0.00000000</i>
   <v name="DFIELD">      0.00000000      0.00000000      0.00000000</v>
   <v name="WPLASMA">      0.00000000      0.00000000      0.00000000      0.00000000      0.00000000      0.00000000      0.00000000      0.00000000      0.00000000</v>
  </separator>
  <separator name="orbital magnetization" >
   <i type="logical" name="NUCIND"> F  </i>
   <v name="MAGPOS">      0.00000000      0.00000000      0.00000000</v>
   <i type="logical" name="LNICSALL"> T  </i>
   <i type="logical" name="ORBITALMAG"> F  </i>
   <i type="logical" name="LMAGBLOCH"> F  </i>
   <i type="logical" name="LCHIMAG"> F  </i>
   <i type="logical" name="LGAUGE"> T  </i>
   <i type="int" name="MAGATOM">     0</i>
   <v name="MAGDIPOL">      0.00000000      0.00000000      0.00000000</v>
   <v name="AVECCONST">      0.00000000      0.00000000      0.00000000</v>
  </separator>
  <separator name="response functions" >
   <i type="logical" name="LFINITE_TEMPERATURE"> F  </i>
   <i type="logical" name="LADDER"> F  </i>
   <i type="logical" name="LRPAFORCE"> F  </i>
   <i type="logical" name="LFXC"> F  </i>
   <i type="logical" name="LHARTREE"> T  </i>
   <i type="int" name="IBSE">     0</i>
   <v type="int" name="KPOINT">    -1     0     0     0</v>
   <i type="logical" name="LTCTC"> F  </i>
   <i type="logical" name="LTCTE"> F  </i>
   <i type="logical" name="LTETE"> F  </i>
   <i type="logical" name="LTRIPLET"> F  </i>
   <i type="logical" name="LFXCEPS"> F  </i>
   <i type="logical" name="LFXHEG"> F  </i>
   <i type="int" name="NATURALO">     2</i>
   <i type="logical" name="LHOLEGF"> F  </i>
   <i type="logical" name="L2ORDER"> F  </i>
   <i type="logical" name="LDMP1"> F  </i>
   <i type="logical" name="LMP2LT"> F  </i>
   <i type="logical" name="LSMP2LT"> F  </i>
   <i type="logical" name="LGWLF"> F  </i>
   <i name="ENCUTGW">     -2.00000000</i>
   <i name="ENCUTGWSOFT">     -2.00000000</i>
   <i name="ENCUTLF">     -1.00000000</i>
   <i type="logical" name="LESF_SPLINES"> F  </i>
   <i type="int" name="LMAXMP2">    -1</i>
   <i name="SCISSOR">      0.00000000</i>
   <i type="int" name="NOMEGA">     0</i>
   <i type="int" name="NOMEGAR">     0</i>
   <i type="int" name="NBANDSGW">    -1</i>
   <i type="int" name="NBANDSO">    -1</i>
   <i type="int" name="NBANDSV">    -1</i>
   <i type="int" name="NELMGW">     1</i>
   <i type="int" name="NELMHF">     1</i>
   <i type="int" name="DIM">     3</i>
   <i type="int" name="IESPILON">     4</i>
   <i type="int" name="ANTIRES">     0</i>
   <i name="OMEGAMAX">    -30.00000000</i>
   <i name="OMEGAMIN">    -30.00000000</i>
   <i name="OMEGATL">   -200.00000000</i>
   <i type="int" name="OMEGAGRID">     0</i>
   <i name="CSHIFT">     -0.10000000</i>
   <i type="logical" name="LSELFENERGY"> F  </i>
   <i type="logical" name="LSPECTRAL"> F  </i>
   <i type="logical" name="LSPECTRALGW"> F  </i>
   <i type="logical" name="LSINGLES"> F  </i>
   <i type="logical" name="LFERMIGW"> F  </i>
   <i type="logical" name="ODDONLYGW"> F  </i>
   <i type="logical" name="EVENONLYGW"> F  </i>
   <i type="int" name="NKREDLFX">     1</i>
   <i type="int" name="NKREDLFY">     1</i>
   <i type="int" name="NKREDLFZ">     1</i>
   <i type="int" name="MAXMEM">  2800</i>
   <i type="int" name="TELESCOPE">     0</i>
   <i type="int" name="NTAUPAR">    -1</i>
   <i type="int" name="NOMEGAPAR">    -1</i>
   <i name="DAMP_NEWTON">      0.80000001</i>
   <i name="LAMBDA">      1.00000000</i>
  </separator>
  <separator name="External order field" >
   <i name="OFIELD_KAPPA">      0.00000000</i>
   <v name="OFIELD_K">      0.00000000      0.00000000      0.00000000</v>
   <i name="OFIELD_Q6_NEAR">      0.00000000</i>
   <i name="OFIELD_Q6_FAR">      0.00000000</i>
   <i name="OFIELD_A">      0.00000000</i>
  </separator>
  <separator name="optional k-points parameters" >
   <i type="int" name="KPOINTS_OPT_MODE">     1</i>
   <i type="logical" name="LKPOINTS_OPT"> F  </i>
  </separator>
 </parameters>
 <atominfo>
  <atoms>      48 </atoms>
  <types>       5 </types>
  <array name="atoms" >
   <dimension dim="1">ion</dimension>
   <field type="string">element</field>
   <field type="int">atomtype</field>
   <set>
    <rc><c>C </c><c>   1</c></rc>
    <rc><c>C </c><c>   1</c></rc>
    <rc><c>C </c><c>   1</c></rc>
    <rc><c>C </c><c>   1</c></rc>
    <rc><c>H </c><c>   2</c></rc>
    <rc><c>H </c><c>   2</c></rc>
    <rc><c>H </c><c>   2</c></rc>
    <rc><c>H </c><c>   2</c></rc>
    <rc><c>H </c><c>   2</c></rc>
    <rc><c>H </c><c>   2</c></rc>
    <rc><c>H </c><c>   2</c></rc>
    <rc><c>H </c><c>   2</c></rc>
    <rc><c>H </c><c>   2</c></rc>
    <rc><c>H </c><c>   2</c></rc>
    <rc><c>H </c><c>   2</c></rc>
    <rc><c>H </c><c>   2</c></rc>
    <rc><c>H </c><c>   2</c></rc>
    <rc><c>H </c><c>   2</c></rc>
    <rc><c>H </c><c>   2</c></rc>
    <rc><c>H </c><c>   2</c></rc>
    <rc><c>H </c><c>   2</c></rc>
    <rc><c>H </c><c>   2</c></rc>
    <rc><c>H </c><c>   2</c></rc>
    <rc><c>H </c><c>   2</c></rc>
    <rc><c>I </c><c>   3</c></rc>
    <rc><c>I </c><c>   3</c></rc>
    <rc><c>I </c><c>   3</c></rc>
    <rc><c>I </c><c>   3</c></rc>
    <rc><c>I </c><c>   3</c></rc>
    <rc><c>I </c><c>   3</c></rc>
    <rc><c>I </c><c>   3</c></rc>
    <rc><c>I </c><c>   3</c></rc>
    <rc><c>I </c><c>   3</c></rc>
    <rc><c>I </c><c>   3</c></rc>
    <rc><c>I </c><c>   3</c></rc>
    <rc><c>I </c><c>   3</c></rc>
    <rc><c>N </c><c>   4</c></rc>
    <rc><c>N </c><c>   4</c></rc>
    <rc><c>N </c><c>   4</c></rc>
    <rc><c>N </c><c>   4</c></rc>
    <rc><c>N </c><c>   4</c></rc>
    <rc><c>N </c><c>   4</c></rc>
    <rc><c>N </c><c>   4</c></rc>
    <rc><c>N </c><c>   4</c></rc>
    <rc><c>Sn</c><c>   5</c></rc>
    <rc><c>Sn</c><c>   5</c></rc>
    <rc><c>Sn</c><c>   5</c></rc>
    <rc><c>Sn</c><c>   5</c></rc>
   </set>
  </array>
  <array name="atomtypes" >
   <dimension dim="1">type</dimension>
   <field type="int">atomspertype</field>
   <field type="string">element</field>
   <field>mass</field>
   <field>valence</field>
   <field type="string">pseudopotential</field>
   <set>
    <rc><c>   4</c><c>C </c><c>     12.01100000</c><c>      4.00000000</c><c>  PAW_PBE C 08Apr2002                   </c></rc>
    <rc><c>  20</c><c>H </c><c>      1.00000000</c><c>      1.00000000</c><c>  PAW_PBE H 15Jun2001                   </c></rc>
    <rc><c>  12</c><c>I </c><c>    126.90400000</c><c>      7.00000000</c><c>  PAW_PBE I 08Apr2002                   </c></rc>
    <rc><c>   8</c><c>N </c><c>     14.00100000</c><c>      5.00000000</c><c>  PAW_PBE N 08Apr2002                   </c></rc>
    <rc><c>   4</c><c>Sn</c><c>    118.71000000</c><c>      4.00000000</c><c>  PAW_PBE Sn 08Apr2002                  </c></rc>
   </set>
  </array>
 </atominfo>
 <structure name="initialpos" >
  <crystal>
   <varray name="basis" >
    <v>       8.83790000       0.00000000       0.00000000 </v>
    <v>       0.00000000       8.83790000       0.00000000 </v>
    <v>       0.00000000       0.00000000      12.40660000 </v>
   </varray>
   <i name="volume">    969.06062343 </i>
   <varray name="rec_basis" >
    <v>       0.11314905       0.00000000       0.00000000 </v>
    <v>       0.00000000       0.11314905       0.00000000 </v>
    <v>       0.00000000       0.00000000       0.08060226 </v>
   </varray>
  </crystal>
  <varray name="positions" >
   <v>       0.50000000       0.00000000       0.45600000 </v>
   <v>       0.00000000       0.50000000       0.45600000 </v>
   <v>       0.50000000       0.00000000       0.02300000 </v>
   <v>       0.00000000       0.50000000       0.02300000 </v>
   <v>       0.50000000       0.00000000       0.37940600 </v>
   <v>       0.00000000       0.50000000       0.37940600 </v>
   <v>       0.40231300       0.09768700       0.57297500 </v>
   <v>       0.59768700       0.90231300       0.57297500 </v>
   <v>       0.90231300       0.40231300       0.57297500 </v>
   <v>       0.09768700       0.59768700       0.57297500 </v>
   <v>       0.34839400       0.15160600       0.46278100 </v>
   <v>       0.65160600       0.84839400       0.46278100 </v>
   <v>       0.84839400       0.34839400       0.46278100 </v>
   <v>       0.15160600       0.65160600       0.46278100 </v>
   <v>       0.50000000       0.00000000       0.09951600 </v>
   <v>       0.00000000       0.50000000       0.09951600 </v>
   <v>       0.40226900       0.09773100       0.90607600 </v>
   <v>       0.59773100       0.90226900       0.90607600 </v>
   <v>       0.90226900       0.40226900       0.90607600 </v>
   <v>       0.09773100       0.59773100       0.90607600 </v>
   <v>       0.34845500       0.15154500       0.01632200 </v>
   <v>       0.65154500       0.84845500       0.01632200 </v>
   <v>       0.84845500       0.34845500       0.01632200 </v>
   <v>       0.15154500       0.65154500       0.01632200 </v>
   <v>       0.00000000       0.00000000       0.00835000 </v>
   <v>       0.50000000       0.50000000       0.00835000 </v>
   <v>       0.69870000       0.19870000       0.75040000 </v>
   <v>       0.30130000       0.80130000       0.75040000 </v>
   <v>       0.80130000       0.69870000       0.75040000 </v>
   <v>       0.19870000       0.30130000       0.75040000 </v>
   <v>       0.00000000       0.00000000       0.50970000 </v>
   <v>       0.50000000       0.50000000       0.50970000 </v>
   <v>       0.73403000       0.23403000       0.24900000 </v>
   <v>       0.26597000       0.76597000       0.24900000 </v>
   <v>       0.76597000       0.73403000       0.24900000 </v>
   <v>       0.23403000       0.26597000       0.24900000 </v>
   <v>       0.40690000       0.09310000       0.50200000 </v>
   <v>       0.59310000       0.90690000       0.50200000 </v>
   <v>       0.90690000       0.40690000       0.50200000 </v>
   <v>       0.09310000       0.59310000       0.50200000 </v>
   <v>       0.40700000       0.09300000       0.97700000 </v>
   <v>       0.59300000       0.90700000       0.97700000 </v>
   <v>       0.90700000       0.40700000       0.97700000 </v>
   <v>       0.09300000       0.59300000       0.97700000 </v>
   <v>       0.00000000       0.00000000       0.25380000 </v>
   <v>       0.50000000       0.50000000       0.25380000 </v>
   <v>       0.00000000       0.00000000       0.75370000 </v>
   <v>       0.50000000       0.50000000       0.75370000 </v>
  </varray>
 </structure>
 <calculation>
  <scstep>
   <time name="total">   11.65   11.69</time>
   <energy>
    <i name="alphaZ">    119.23563490 </i>
    <i name="ewald">  -4472.80601976 </i>
    <i name="hartreedc">  -2155.05001242 </i>
    <i name="XCdc">   -370.01465092 </i>
    <i name="pawpsdc">   6161.33813817 </i>
    <i name="pawaedc">  -5338.05185836 </i>
    <i name="eentropy">     -0.00960181 </i>
    <i name="bandstr">    384.76703006 </i>
    <i name="atom">   7160.47832104 </i>
    <i name="e_fr_energy">   1489.88698090 </i>
    <i name="e_wo_entrp">   1489.89658272 </i>
    <i name="e_0_energy">   1489.89178181 </i>
   </energy>
  </scstep>
  <scstep>
   <time name="total">    8.32    8.33</time>
   <energy>
    <i name="e_fr_energy">     26.76791716 </i>
    <i name="e_wo_entrp">     26.76895578 </i>
    <i name="e_0_energy">     26.76843647 </i>
   </energy>
  </scstep>
  <scstep>
   <time name="total">    8.12   19.83</time>
   <energy>
    <i name="e_fr_energy">   -175.88542578 </i>
    <i name="e_wo_entrp">   -175.87361681 </i>
    <i name="e_0_energy">   -175.87952129 </i>
   </energy>
  </scstep>
  <scstep>
   <time name="total">    7.82   11.12</time>
   <energy>
    <i name="e_fr_energy">   -181.57854296 </i>
    <i name="e_wo_entrp">   -181.55416724 </i>
    <i name="e_0_energy">   -181.56635510 </i>
   </energy>
  </scstep>
  <scstep>
   <time name="total">    9.35    9.36</time>
   <energy>
    <i name="e_fr_energy">   -181.73687980 </i>
    <i name="e_wo_entrp">   -181.71086906 </i>
    <i name="e_0_energy">   -181.72387443 </i>
   </energy>
  </scstep>
  <scstep>
   <time name="total">   13.55   13.56</time>
   <energy>
    <i name="e_fr_energy">   -135.72310051 </i>
    <i name="e_wo_entrp">   -135.72021463 </i>
    <i name="e_0_energy">   -135.72165757 </i>
   </energy>
  </scstep>
  <scstep>
   <time name="total">   13.55   13.55</time>
   <energy>
    <i name="e_fr_energy">   -156.92962225 </i>
    <i name="e_wo_entrp">   -156.92962225 </i>
    <i name="e_0_energy">   -156.92962225 </i>
   </energy>
  </scstep>
  <scstep>
   <time name="total">   13.56   13.57</time>
   <energy>
    <i name="e_fr_energy">   -159.28630977 </i>
    <i name="e_wo_entrp">   -159.28630977 </i>
    <i name="e_0_energy">   -159.28630977 </i>
   </energy>
  </scstep>
  <scstep>
   <time name="total">   13.61   13.62</time>
   <energy>
    <i name="e_fr_energy">   -160.05866786 </i>
    <i name="e_wo_entrp">   -160.05866786 </i>
    <i name="e_0_energy">   -160.05866786 </i>
   </energy>
  </scstep>
  <scstep>
   <time name="total">   13.57   13.57</time>
   <energy>
    <i name="e_fr_energy">   -160.30469672 </i>
    <i name="e_wo_entrp">   -160.30469672 </i>
    <i name="e_0_energy">   -160.30469672 </i>
   </energy>
  </scstep>
  <scstep>
   <time name="total">   13.60   13.61</time>
   <energy>
    <i name="e_fr_energy">   -160.38850638 </i>
    <i name="e_wo_entrp">   -160.38850638 </i>
    <i name="e_0_energy">   -160.38850638 </i>
   </energy>
  </scstep>
  <scstep>
   <time name="total">   13.58   13.59</time>
   <energy>
    <i name="e_fr_energy">   -160.41468991 </i>
    <i name="e_wo_entrp">   -160.41468991 </i>
    <i name="e_0_energy">   -160.41468991 </i>
   </energy>
  </scstep>
  <scstep>
   <time name="total">   13.59   13.60</time>
   <energy>
    <i name="e_fr_energy">   -160.42102865 </i>
    <i name="e_wo_entrp">   -160.42102865 </i>
    <i name="e_0_energy">   -160.42102865 </i>
   </energy>
  </scstep>
  <scstep>
   <time name="total">   13.61   13.62</time>
   <energy>
    <i name="e_fr_energy">   -160.42295372 </i>
    <i name="e_wo_entrp">   -160.42295372 </i>
    <i name="e_0_energy">   -160.42295372 </i>
   </energy>
  </scstep>
  <scstep>
   <time name="total">   13.60   13.61</time>
   <energy>
    <i name="e_fr_energy">   -160.42346267 </i>
    <i name="e_wo_entrp">   -160.42346267 </i>
    <i name="e_0_energy">   -160.42346267 </i>
   </energy>
  </scstep>
  <scstep>
   <time name="total">   13.63   13.63</time>
   <energy>
    <i name="e_fr_energy">   -160.42362829 </i>
    <i name="e_wo_entrp">   -160.42362829 </i>
    <i name="e_0_energy">   -160.42362829 </i>
   </energy>
  </scstep>
  <scstep>
   <time name="total">   17.74   19.99</time>
   <energy>
    <i name="e_fr_energy">   -160.42367872 </i>
    <i name="e_wo_entrp">   -160.42367872 </i>
    <i name="e_0_energy">   -160.42367872 </i>
   </energy>
  </scstep>
  <scstep>
   <time name="total">   13.47   13.47</time>
   <energy>
    <i name="e_fr_energy">   -160.42369357 </i>
    <i name="e_wo_entrp">   -160.42369357 </i>
    <i name="e_0_energy">   -160.42369357 </i>
   </energy>
  </scstep>
  <scstep>
   <time name="total">   14.69   14.70</time>
   <energy>
    <i name="alphaZ">    119.23563490 </i>
    <i name="ewald">  -4472.80601976 </i>
    <i name="hartreedc">  -2439.69273504 </i>
    <i name="XCdc">   -348.87116476 </i>
    <i name="pawpsdc">  13275.55382750 </i>
    <i name="pawaedc"> -12458.18886511 </i>
    <i name="eentropy">     -0.00000000 </i>
    <i name="bandstr">   -996.13269659 </i>
    <i name="atom">   7160.47832104 </i>
    <i name="e_fr_energy">   -160.42369781 </i>
    <i name="e_wo_entrp">   -160.42369781 </i>
    <i name="e_0_energy">   -160.42369781 </i>
   </energy>
  </scstep>
  <structure>
   <crystal>
    <varray name="basis" >
     <v>       8.83790000       0.00000000       0.00000000 </v>
     <v>       0.00000000       8.83790000       0.00000000 </v>
     <v>       0.00000000       0.00000000      12.40660000 </v>
    </varray>
    <i name="volume">    969.06062343 </i>
    <varray name="rec_basis" >
     <v>       0.11314905       0.00000000       0.00000000 </v>
     <v>       0.00000000       0.11314905       0.00000000 </v>
     <v>       0.00000000       0.00000000       0.08060226 </v>
    </varray>
   </crystal>
   <varray name="positions" >
    <v>       0.50000000       0.00000000       0.45600000 </v>
    <v>       0.00000000       0.50000000       0.45600000 </v>
    <v>       0.50000000       0.00000000       0.02300000 </v>
    <v>       0.00000000       0.50000000       0.02300000 </v>
    <v>       0.50000000       0.00000000       0.37940600 </v>
    <v>       0.00000000       0.50000000       0.37940600 </v>
    <v>       0.40231300       0.09768700       0.57297500 </v>
    <v>       0.59768700       0.90231300       0.57297500 </v>
    <v>       0.90231300       0.40231300       0.57297500 </v>
    <v>       0.09768700       0.59768700       0.57297500 </v>
    <v>       0.34839400       0.15160600       0.46278100 </v>
    <v>       0.65160600       0.84839400       0.46278100 </v>
    <v>       0.84839400       0.34839400       0.46278100 </v>
    <v>       0.15160600       0.65160600       0.46278100 </v>
    <v>       0.50000000       0.00000000       0.09951600 </v>
    <v>       0.00000000       0.50000000       0.09951600 </v>
    <v>       0.40226900       0.09773100       0.90607600 </v>
    <v>       0.59773100       0.90226900       0.90607600 </v>
    <v>       0.90226900       0.40226900       0.90607600 </v>
    <v>       0.09773100       0.59773100       0.90607600 </v>
    <v>       0.34845500       0.15154500       0.01632200 </v>
    <v>       0.65154500       0.84845500       0.01632200 </v>
    <v>       0.84845500       0.34845500       0.01632200 </v>
    <v>       0.15154500       0.65154500       0.01632200 </v>
    <v>       0.00000000       0.00000000       0.00835000 </v>
    <v>       0.50000000       0.50000000       0.00835000 </v>
    <v>       0.69870000       0.19870000       0.75040000 </v>
    <v>       0.30130000       0.80130000       0.75040000 </v>
    <v>       0.80130000       0.69870000       0.75040000 </v>
    <v>       0.19870000       0.30130000       0.75040000 </v>
    <v>       0.00000000       0.00000000       0.50970000 </v>
    <v>       0.50000000       0.50000000       0.50970000 </v>
    <v>       0.73403000       0.23403000       0.24900000 </v>
    <v>       0.26597000       0.76597000       0.24900000 </v>
    <v>       0.76597000       0.73403000       0.24900000 </v>
    <v>       0.23403000       0.26597000       0.24900000 </v>
    <v>       0.40690000       0.09310000       0.50200000 </v>
    <v>       0.59310000       0.90690000       0.50200000 </v>
    <v>       0.90690000       0.40690000       0.50200000 </v>
    <v>       0.09310000       0.59310000       0.50200000 </v>
    <v>       0.40700000       0.09300000       0.97700000 </v>
    <v>       0.59300000       0.90700000       0.97700000 </v>
    <v>       0.90700000       0.40700000       0.97700000 </v>
    <v>       0.09300000       0.59300000       0.97700000 </v>
    <v>       0.00000000       0.00000000       0.25380000 </v>
    <v>       0.50000000       0.50000000       0.25380000 </v>
    <v>       0.00000000       0.00000000       0.75370000 </v>
    <v>       0.50000000       0.50000000       0.75370000 </v>
   </varray>
  </structure>
  <varray name="forces" >
   <v>       0.00000544      -0.00000237       4.74515946 </v>
   <v>      -0.00001167      -0.00000991       4.74514828 </v>
   <v>       0.00000515      -0.00001597      -4.80041634 </v>
   <v>       0.00000413       0.00000103      -4.80041327 </v>
   <v>      -0.00000009       0.00000047      -7.21599020 </v>
   <v>      -0.00000268       0.00000051      -7.21598882 </v>
   <v>      -0.64898990       0.64898716       9.27122395 </v>
   <v>       0.64899171      -0.64899026       9.27122291 </v>
   <v>      -0.64899210      -0.64898917       9.27121910 </v>
   <v>       0.64899144       0.64899015       9.27123011 </v>
   <v>      -5.64059632       5.64059504      -5.38266408 </v>
   <v>       5.64059132      -5.64058833      -5.38266052 </v>
   <v>      -5.64059272      -5.64059053      -5.38266236 </v>
   <v>       5.64059762       5.64059692      -5.38266935 </v>
   <v>       0.00000195      -0.00000249       7.31177563 </v>
   <v>       0.00000003       0.00000050       7.31177041 </v>
   <v>      -0.65357027       0.65357011      -9.31626552 </v>
   <v>       0.65357169      -0.65357056      -9.31626096 </v>
   <v>      -0.65357058      -0.65357110      -9.31626098 </v>
   <v>       0.65357179       0.65357155      -9.31626063 </v>
   <v>      -5.56453596       5.56453636       5.30381374 </v>
   <v>       5.56453331      -5.56453256       5.30381110 </v>
   <v>      -5.56453627      -5.56453616       5.30381236 </v>
   <v>       5.56453442       5.56453530       5.30381210 </v>
   <v>      -0.00000431      -0.00000526      -0.02636492 </v>
   <v>       0.00000604       0.00001256      -0.02636722 </v>
   <v>      -0.04865594      -0.04866463      -0.02145911 </v>
   <v>       0.04866867       0.04866048      -0.02144947 </v>
   <v>       0.04865333      -0.04865852      -0.02145084 </v>
   <v>      -0.04866284       0.04866296      -0.02145657 </v>
   <v>      -0.00000785       0.00000788      -0.09449745 </v>
   <v>       0.00000337      -0.00000082      -0.09449371 </v>
   <v>      -0.00070534      -0.00070969      -0.00232882 </v>
   <v>       0.00071541       0.00071043      -0.00233851 </v>
   <v>       0.00070367      -0.00070850      -0.00233725 </v>
   <v>      -0.00071236       0.00070626      -0.00233047 </v>
   <v>       5.65885865      -5.65886774      -2.61968625 </v>
   <v>      -5.65885707       5.65886517      -2.61969932 </v>
   <v>       5.65886325       5.65886748      -2.61969645 </v>
   <v>      -5.65886465      -5.65886432      -2.61970682 </v>
   <v>       5.53954883      -5.53955728       2.81569967 </v>
   <v>      -5.53954812       5.53954879       2.81570056 </v>
   <v>       5.53953921       5.53954547       2.81569840 </v>
   <v>      -5.53954207      -5.53954549       2.81570441 </v>
   <v>      -0.00000254       0.00000161      -0.01456216 </v>
   <v>       0.00000252       0.00000288      -0.01456262 </v>
   <v>      -0.00000277       0.00000160      -0.00175137 </v>
   <v>       0.00000145       0.00000298      -0.00174982 </v>
  </varray>
  <varray name="stress" >
   <v>      44.82041488       0.00003144       0.00000747 </v>
   <v>       0.00003131      44.82043745       0.00001386 </v>
   <v>       0.00000755       0.00001391     197.65051569 </v>
  </varray>
  <energy>
   <i name="e_fr_energy">   -160.42369781 </i>
   <i name="e_wo_entrp">   -160.42369781 </i>
   <i name="e_0_energy">   -160.42369781 </i>
  </energy>
  <time name="totalsc">  263.35  280.78</time>
 </calculation>
 <calculation>
  <scstep>
   <time name="total">   13.49   13.49</time>
   <energy>
    <i name="alphaZ">    100.87424496 </i>
    <i name="ewald">  -3622.37289983 </i>
    <i name="hartreedc">  -1152.29454935 </i>
    <i name="XCdc">   -435.83321450 </i>
    <i name="pawpsdc">  49913.42928267 </i>
    <i name="pawaedc"> -49091.92032907 </i>
    <i name="eentropy">     -0.00896110 </i>
    <i name="bandstr">  -1187.86155458 </i>
    <i name="atom">   7160.47832104 </i>
    <i name="e_fr_energy">   1684.49131671 </i>
    <i name="e_wo_entrp">   1684.50027781 </i>
    <i name="e_0_energy">   1684.49579726 </i>
   </energy>
  </scstep>
  <scstep>
   <time name="total">   13.46   13.46</time>
   <energy>
    <i name="e_fr_energy">    662.51859874 </i>
    <i name="e_wo_entrp">    662.52138260 </i>
    <i name="e_0_energy">    662.51999067 </i>
   </energy>
  </scstep>
  <scstep>
   <time name="total">   13.47   13.48</time>
   <energy>
    <i name="e_fr_energy">    298.13744355 </i>
    <i name="e_wo_entrp">    298.15445986 </i>
    <i name="e_0_energy">    298.14595170 </i>
   </energy>
  </scstep>
  <scstep>
   <time name="total">   13.48   13.48</time>
   <energy>
    <i name="e_fr_energy">    121.72939045 </i>
    <i name="e_wo_entrp">    121.73425750 </i>
    <i name="e_0_energy">    121.73182398 </i>
   </energy>
  </scstep>
  <scstep>
   <time name="total">   13.48   13.49</time>
   <energy>
    <i name="e_fr_energy">     70.70793465 </i>
    <i name="e_wo_entrp">     70.71437815 </i>
    <i name="e_0_energy">     70.71115640 </i>
   </energy>
  </scstep>
  <scstep>
   <time name="total">   13.50   13.51</time>
   <energy>
    <i name="e_fr_energy">     47.11366643 </i>
    <i name="e_wo_entrp">     47.12888081 </i>
    <i name="e_0_energy">     47.12127362 </i>
   </energy>
  </scstep>
  <scstep>
   <time name="total">   13.46   13.46</time>
   <energy>
    <i name="e_fr_energy">     36.96526421 </i>
    <i name="e_wo_entrp">     36.97900562 </i>
    <i name="e_0_energy">     36.97213492 </i>
   </energy>
  </scstep>
  <scstep>
   <time name="total">   13.48   13.49</time>
   <energy>
    <i name="e_fr_energy">     32.65060918 </i>
    <i name="e_wo_entrp">     32.65974361 </i>
    <i name="e_0_energy">     32.65517640 </i>
   </energy>
  </scstep>
  <scstep>
   <time name="total">   17.74   28.86</time>
   <energy>
    <i name="e_fr_energy">     30.78112340 </i>
    <i name="e_wo_entrp">     30.78649522 </i>
    <i name="e_0_energy">     30.78380931 </i>
   </energy>
  </scstep>
  <scstep>
   <time name="total">   13.48   19.36</time>
   <energy>
    <i name="e_fr_energy">     29.88362735 </i>
    <i name="e_wo_entrp">     29.88855701 </i>
    <i name="e_0_energy">     29.88609218 </i>
   </energy>
  </scstep>
  <scstep>
   <time name="total">   13.49   13.50</time>
   <energy>
    <i name="e_fr_energy">     29.53771099 </i>
    <i name="e_wo_entrp">     29.54268544 </i>
    <i name="e_0_energy">     29.54019822 </i>
   </energy>
  </scstep>
  <scstep>
   <time name="total">   13.51   13.51</time>
   <energy>
    <i name="e_fr_energy">     29.42446198 </i>
    <i name="e_wo_entrp">     29.42486760 </i>
    <i name="e_0_energy">     29.42466479 </i>
   </energy>
  </scstep>
  <scstep>
   <time name="total">   13.49   13.50</time>
   <energy>
    <i name="e_fr_energy">     29.36462575 </i>
    <i name="e_wo_entrp">     29.36485611 </i>
    <i name="e_0_energy">     29.36474093 </i>
   </energy>
  </scstep>
  <scstep>
   <time name="total">   13.46   13.47</time>
   <energy>
    <i name="e_fr_energy">     29.29554240 </i>
    <i name="e_wo_entrp">     29.29586382 </i>
    <i name="e_0_energy">     29.29570311 </i>
   </energy>
  </scstep>
  <scstep>
   <time name="total">   13.46   13.47</time>
   <energy>
    <i name="e_fr_energy">     29.26306521 </i>
    <i name="e_wo_entrp">     29.26591171 </i>
    <i name="e_0_energy">     29.26448846 </i>
   </energy>
  </scstep>
  <scstep>
   <time name="total">   13.48   13.48</time>
   <energy>
    <i name="e_fr_energy">     29.24803775 </i>
    <i name="e_wo_entrp">     29.25104160 </i>
    <i name="e_0_energy">     29.24953967 </i>
   </energy>
  </scstep>
  <scstep>
   <time name="total">   13.48   13.48</time>
   <energy>
    <i name="e_fr_energy">     29.23978275 </i>
    <i name="e_wo_entrp">     29.24236450 </i>
    <i name="e_0_energy">     29.24107363 </i>
   </energy>
  </scstep>
  <scstep>
   <time name="total">   13.44   13.45</time>
   <energy>
    <i name="e_fr_energy">     29.23603370 </i>
    <i name="e_wo_entrp">     29.23841451 </i>
    <i name="e_0_energy">     29.23722411 </i>
   </energy>
  </scstep>
  <scstep>
   <time name="total">   13.48   13.49</time>
   <energy>
    <i name="e_fr_energy">     29.23363660 </i>
    <i name="e_wo_entrp">     29.23592606 </i>
    <i name="e_0_energy">     29.23478133 </i>
   </energy>
  </scstep>
  <scstep>
   <time name="total">   13.47   16.08</time>
   <energy>
    <i name="e_fr_energy">     29.23236492 </i>
    <i name="e_wo_entrp">     29.23466185 </i>
    <i name="e_0_energy">     29.23351339 </i>
   </energy>
  </scstep>
  <scstep>
   <time name="total">   13.46   13.47</time>
   <energy>
    <i name="e_fr_energy">     29.23159002 </i>
    <i name="e_wo_entrp">     29.23392004 </i>
    <i name="e_0_energy">     29.23275503 </i>
   </energy>
  </scstep>
  <scstep>
   <time name="total">   13.46   13.47</time>
   <energy>
    <i name="e_fr_energy">     29.23119706 </i>
    <i name="e_wo_entrp">     29.23357125 </i>
    <i name="e_0_energy">     29.23238415 </i>
   </energy>
  </scstep>
  <scstep>
   <time name="total">   13.46   13.46</time>
   <energy>
    <i name="e_fr_energy">     29.23097280 </i>
    <i name="e_wo_entrp">     29.23345624 </i>
    <i name="e_0_energy">     29.23221452 </i>
   </energy>
  </scstep>
  <scstep>
   <time name="total">   13.50   13.51</time>
   <energy>
    <i name="e_fr_energy">     29.23079932 </i>
    <i name="e_wo_entrp">     29.23341366 </i>
    <i name="e_0_energy">     29.23210649 </i>
   </energy>
  </scstep>
  <scstep>
   <time name="total">   13.46   13.46</time>
   <energy>
    <i name="e_fr_energy">     29.23067833 </i>
    <i name="e_wo_entrp">     29.23336895 </i>
    <i name="e_0_energy">     29.23202364 </i>
   </energy>
  </scstep>
  <scstep>
   <time name="total">   13.48   13.48</time>
   <energy>
    <i name="e_fr_energy">     29.23061036 </i>
    <i name="e_wo_entrp">     29.23334190 </i>
    <i name="e_0_energy">     29.23197613 </i>
   </energy>
  </scstep>
  <scstep>
   <time name="total">   13.46   13.47</time>
   <energy>
    <i name="e_fr_energy">     29.23056774 </i>
    <i name="e_wo_entrp">     29.23335397 </i>
    <i name="e_0_energy">     29.23196085 </i>
   </energy>
  </scstep>
  <scstep>
   <time name="total">   13.47   13.48</time>
   <energy>
    <i name="e_fr_energy">     29.23052137 </i>
    <i name="e_wo_entrp">     29.23332127 </i>
    <i name="e_0_energy">     29.23192132 </i>
   </energy>
  </scstep>
  <scstep>
   <time name="total">   13.48   13.49</time>
   <energy>
    <i name="e_fr_energy">     29.23050942 </i>
    <i name="e_wo_entrp">     29.23330456 </i>
    <i name="e_0_energy">     29.23190699 </i>
   </energy>
  </scstep>
  <scstep>
   <time name="total">   13.46   13.46</time>
   <energy>
    <i name="e_fr_energy">     29.23049798 </i>
    <i name="e_wo_entrp">     29.23328130 </i>
    <i name="e_0_energy">     29.23188964 </i>
   </energy>
  </scstep>
  <scstep>
   <time name="total">   13.48   13.49</time>
   <energy>
    <i name="e_fr_energy">     29.23048945 </i>
    <i name="e_wo_entrp">     29.23326960 </i>
    <i name="e_0_energy">     29.23187952 </i>
   </energy>
  </scstep>
  <scstep>
   <time name="total">   14.63   24.71</time>
   <energy>
    <i name="alphaZ">    100.87424496 </i>
    <i name="ewald">  -3622.37289983 </i>
    <i name="hartreedc">  -3010.44789946 </i>
    <i name="XCdc">   -355.77196822 </i>
    <i name="pawpsdc">  14841.29523852 </i>
    <i name="pawaedc"> -14026.43812708 </i>
    <i name="eentropy">     -0.00278401 </i>
    <i name="bandstr">  -1058.38364440 </i>
    <i name="atom">   7160.47832104 </i>
    <i name="e_fr_energy">     29.23048539 </i>
    <i name="e_wo_entrp">     29.23326940 </i>
    <i name="e_0_energy">     29.23187739 </i>
   </energy>
  </scstep>
  <structure>
   <crystal>
    <varray name="basis" >
     <v>       9.07869933       0.00000017       0.00000004 </v>
     <v>       0.00000017       9.07869945       0.00000007 </v>
     <v>       0.00000006       0.00000010      13.89726842 </v>
    </varray>
    <i name="volume">   1145.45153460 </i>
    <varray name="rec_basis" >
     <v>       0.11014794      -0.00000000      -0.00000000 </v>
     <v>      -0.00000000       0.11014794      -0.00000000 </v>
     <v>      -0.00000000      -0.00000000       0.07195659 </v>
    </varray>
   </crystal>
   <varray name="positions" >
    <v>       0.50000003      -0.00000001       0.47445140 </v>
    <v>      -0.00000006       0.49999995       0.47445135 </v>
    <v>       0.50000003      -0.00000009       0.00433374 </v>
    <v>       0.00000002       0.50000001       0.00433375 </v>
    <v>       0.50000000       0.00000000       0.35134686 </v>
    <v>      -0.00000001       0.50000000       0.35134687 </v>
    <v>       0.39877042       0.10122957       0.60902585 </v>
    <v>       0.60122959       0.89877041       0.60902584 </v>
    <v>       0.89877040       0.39877042       0.60902583 </v>
    <v>       0.10122959       0.60122958       0.60902587 </v>
    <v>       0.31760418       0.18239581       0.44185069 </v>
    <v>       0.68239579       0.81760423       0.44185070 </v>
    <v>       0.81760420       0.31760421       0.44185070 </v>
    <v>       0.18239583       0.68239582       0.44185067 </v>
    <v>       0.50000001      -0.00000001       0.12794760 </v>
    <v>       0.00000000       0.50000000       0.12794758 </v>
    <v>       0.39870141       0.10129858       0.86985001 </v>
    <v>       0.60129859       0.89870141       0.86985003 </v>
    <v>       0.89870141       0.39870141       0.86985003 </v>
    <v>       0.10129859       0.60129859       0.86985003 </v>
    <v>       0.31808037       0.18191964       0.03694570 </v>
    <v>       0.68191962       0.81808038       0.03694569 </v>
    <v>       0.81808036       0.31808036       0.03694570 </v>
    <v>       0.18191963       0.68191963       0.03694570 </v>
    <v>      -0.00000002      -0.00000003       0.00824748 </v>
    <v>       0.50000003       0.50000007       0.00824747 </v>
    <v>       0.69843441       0.19843436       0.75031656 </v>
    <v>       0.30156566       0.80156562       0.75031659 </v>
    <v>       0.80156558       0.69843439       0.75031659 </v>
    <v>       0.19843437       0.30156563       0.75031657 </v>
    <v>      -0.00000004       0.00000004       0.50933255 </v>
    <v>       0.50000002       0.50000000       0.50933256 </v>
    <v>       0.73402615       0.23402613       0.24899094 </v>
    <v>       0.26597391       0.76597388       0.24899091 </v>
    <v>       0.76597384       0.73402613       0.24899091 </v>
    <v>       0.23402611       0.26597386       0.24899094 </v>
    <v>       0.43778951       0.06221044       0.49181344 </v>
    <v>       0.56221050       0.93778954       0.49181339 </v>
    <v>       0.93778953       0.43778955       0.49181340 </v>
    <v>       0.06221046       0.56221046       0.49181336 </v>
    <v>       0.43723824       0.06276171       0.98794876 </v>
    <v>       0.56276176       0.93723824       0.98794876 </v>
    <v>       0.93723819       0.43723822       0.98794875 </v>
    <v>       0.06276180       0.56276178       0.98794877 </v>
    <v>      -0.00000001       0.00000001       0.25374338 </v>
    <v>       0.50000001       0.50000002       0.25374337 </v>
    <v>      -0.00000002       0.00000001       0.75369319 </v>
    <v>       0.50000001       0.50000002       0.75369320 </v>
   </varray>
  </structure>
  <varray name="forces" >
   <v>      -0.00033330       0.00038857     -69.21092188 </v>
   <v>       0.00059253       0.00053579     -69.20695687 </v>
   <v>      -0.00066626       0.00054638      64.04439720 </v>
   <v>      -0.00024588      -0.00029333      64.03774684 </v>
   <v>      -0.00000539      -0.00000404      -0.29561517 </v>
   <v>      -0.00000131       0.00000315      -0.29494274 </v>
   <v>       0.75575890      -0.75576866      -2.56238168 </v>
   <v>      -0.75576169       0.75575933      -2.56237414 </v>
   <v>       0.75582297       0.75583537      -2.56177120 </v>
   <v>      -0.75583108      -0.75582086      -2.56178475 </v>
   <v>       2.18378712      -2.18378144       1.04346843 </v>
   <v>      -2.18379076       2.18379904       1.04346417 </v>
   <v>       2.18323431       2.18321982       1.04383645 </v>
   <v>      -2.18325638      -2.18325274       1.04386234 </v>
   <v>      -0.00000272       0.00000310       0.38093669 </v>
   <v>       0.00000465       0.00000589       0.38011086 </v>
   <v>       0.64450261      -0.64452342       2.37899704 </v>
   <v>      -0.64450116       0.64449013       2.37898325 </v>
   <v>       0.64465556       0.64463973       2.37855348 </v>
   <v>      -0.64463533      -0.64463925       2.37855278 </v>
   <v>       2.34267835      -2.34268761      -1.28655530 </v>
   <v>      -2.34267626       2.34269075      -1.28656532 </v>
   <v>       2.34214015       2.34214285      -1.28705201 </v>
   <v>      -2.34211391      -2.34211716      -1.28705098 </v>
   <v>       0.00002034       0.00002350       0.27763688 </v>
   <v>       0.00001979       0.00003608       0.27764847 </v>
   <v>       0.22562319       0.22564288       0.06804156 </v>
   <v>      -0.22570061      -0.22567515       0.06804264 </v>
   <v>      -0.22382369       0.22382113       0.06802233 </v>
   <v>       0.22378555      -0.22384771       0.06799444 </v>
   <v>       0.00004504       0.00001400       0.00627024 </v>
   <v>       0.00004043       0.00002097       0.00624817 </v>
   <v>       0.11281771       0.11279703       0.19650370 </v>
   <v>      -0.11285173      -0.11279872       0.19649017 </v>
   <v>      -0.11952304       0.11961171       0.19636036 </v>
   <v>       0.11959492      -0.11956451       0.19633795 </v>
   <v>     -96.48689641      96.48677138      35.99977501 </v>
   <v>      96.48721356     -96.48721760      35.99978767 </v>
   <v>     -96.48953467     -96.48945885      36.00507844 </v>
   <v>      96.48891762      96.48898081      36.00478581 </v>
   <v>     -94.92893140      94.92888721     -33.25188548 </v>
   <v>      94.92954877     -94.92949450     -33.25213619 </v>
   <v>     -94.93025704     -94.93018672     -33.25759194 </v>
   <v>      94.93050700      94.93047006     -33.25772402 </v>
   <v>       0.00000513      -0.00001655      -0.10621915 </v>
   <v>      -0.00001400      -0.00000775      -0.10620625 </v>
   <v>       0.00003508      -0.00000233      -0.26609088 </v>
   <v>       0.00000276       0.00002222      -0.26610744 </v>
  </varray>
  <varray name="stress" >
   <v>     531.66651341       0.00207331      -0.00045698 </v>
   <v>       0.00207369     531.66612232      -0.00021295 </v>
   <v>      -0.00045706      -0.00021281     -12.11105801 </v>
  </varray>
  <energy>
   <i name="e_fr_energy">     29.23048539 </i>
   <i name="e_wo_entrp">     29.23326940 </i>
   <i name="e_0_energy">     29.23187739 </i>
  </energy>
  <time name="totalsc">  459.03  488.92</time>
 </calculation>
 <calculation>
  <scstep>
   <time name="total">   13.49   13.49</time>
   <energy>
    <i name="alphaZ">    115.11928284 </i>
    <i name="ewald">  -4476.09777122 </i>
    <i name="hartreedc">  -1066.47827693 </i>
    <i name="XCdc">   -424.23583968 </i>
    <i name="pawpsdc">  19857.69607849 </i>
    <i name="pawaedc"> -19042.34669315 </i>
    <i name="eentropy">     -0.00000000 </i>
    <i name="bandstr">  -1011.99619181 </i>
    <i name="atom">   7160.47832104 </i>
    <i name="e_fr_energy">   1112.12487571 </i>
    <i name="e_wo_entrp">   1112.12487571 </i>
    <i name="e_0_energy">   1112.12487571 </i>
   </energy>
  </scstep>
  <scstep>
   <time name="total">   13.49   13.50</time>
   <energy>
    <i name="e_fr_energy">    227.89424359 </i>
    <i name="e_wo_entrp">    227.89925329 </i>
    <i name="e_0_energy">    227.89674844 </i>
   </energy>
  </scstep>
  <scstep>
   <time name="total">   13.49   13.50</time>
   <energy>
    <i name="e_fr_energy">    -59.91113559 </i>
    <i name="e_wo_entrp">    -59.90544925 </i>
    <i name="e_0_energy">    -59.90829242 </i>
   </energy>
  </scstep>
  <scstep>
   <time name="total">   13.48   13.48</time>
   <energy>
    <i name="e_fr_energy">   -135.27673158 </i>
    <i name="e_wo_entrp">   -135.27358866 </i>
    <i name="e_0_energy">   -135.27516012 </i>
   </energy>
  </scstep>
  <scstep>
   <time name="total">   13.51   13.52</time>
   <energy>
    <i name="e_fr_energy">   -153.80326789 </i>
    <i name="e_wo_entrp">   -153.79952271 </i>
    <i name="e_0_energy">   -153.80139530 </i>
   </energy>
  </scstep>
  <scstep>
   <time name="total">   13.50   13.51</time>
   <energy>
    <i name="e_fr_energy">   -161.52108428 </i>
    <i name="e_wo_entrp">   -161.52108344 </i>
    <i name="e_0_energy">   -161.52108386 </i>
   </energy>
  </scstep>
  <scstep>
   <time name="total">   13.52   13.53</time>
   <energy>
    <i name="e_fr_energy">   -164.32176713 </i>
    <i name="e_wo_entrp">   -164.32176713 </i>
    <i name="e_0_energy">   -164.32176713 </i>
   </energy>
  </scstep>
  <scstep>
   <time name="total">   13.49   13.50</time>
   <energy>
    <i name="e_fr_energy">   -165.04704404 </i>
    <i name="e_wo_entrp">   -165.04704404 </i>
    <i name="e_0_energy">   -165.04704404 </i>
   </energy>
  </scstep>
  <scstep>
   <time name="total">   13.47   13.48</time>
   <energy>
    <i name="e_fr_energy">   -165.21566242 </i>
    <i name="e_wo_entrp">   -165.21566242 </i>
    <i name="e_0_energy">   -165.21566242 </i>
   </energy>
  </scstep>
  <scstep>
   <time name="total">   13.48   21.61</time>
   <energy>
    <i name="e_fr_energy">   -165.25399154 </i>
    <i name="e_wo_entrp">   -165.25399154 </i>
    <i name="e_0_energy">   -165.25399154 </i>
   </energy>
  </scstep>
  <scstep>
   <time name="total">   13.48   13.48</time>
   <energy>
    <i name="e_fr_energy">   -165.26465666 </i>
    <i name="e_wo_entrp">   -165.26465666 </i>
    <i name="e_0_energy">   -165.26465666 </i>
   </energy>
  </scstep>
  <scstep>
   <time name="total">   13.46   13.46</time>
   <energy>
    <i name="e_fr_energy">   -165.26827038 </i>
    <i name="e_wo_entrp">   -165.26827038 </i>
    <i name="e_0_energy">   -165.26827038 </i>
   </energy>
  </scstep>
  <scstep>
   <time name="total">   13.46   13.47</time>
   <energy>
    <i name="e_fr_energy">   -165.26942159 </i>
    <i name="e_wo_entrp">   -165.26942159 </i>
    <i name="e_0_energy">   -165.26942159 </i>
   </energy>
  </scstep>
  <scstep>
   <time name="total">   13.52   13.53</time>
   <energy>
    <i name="e_fr_energy">   -165.26975758 </i>
    <i name="e_wo_entrp">   -165.26975758 </i>
    <i name="e_0_energy">   -165.26975758 </i>
   </energy>
  </scstep>
  <scstep>
   <time name="total">   13.44   13.44</time>
   <energy>
    <i name="e_fr_energy">   -165.26985499 </i>
    <i name="e_wo_entrp">   -165.26985499 </i>
    <i name="e_0_energy">   -165.26985499 </i>
   </energy>
  </scstep>
  <scstep>
   <time name="total">   13.43   13.44</time>
   <energy>
    <i name="e_fr_energy">   -165.26988460 </i>
    <i name="e_wo_entrp">   -165.26988460 </i>
    <i name="e_0_energy">   -165.26988460 </i>
   </energy>
  </scstep>
  <scstep>
   <time name="total">   13.52   13.52</time>
   <energy>
    <i name="e_fr_energy">   -165.26989420 </i>
    <i name="e_wo_entrp">   -165.26989420 </i>
    <i name="e_0_energy">   -165.26989420 </i>
   </energy>
  </scstep>
  <scstep>
   <time name="total">   14.61   14.62</time>
   <energy>
    <i name="alphaZ">    115.11928284 </i>
    <i name="ewald">  -4476.09777122 </i>
    <i name="hartreedc">  -2452.31741686 </i>
    <i name="XCdc">   -356.72955222 </i>
    <i name="pawpsdc">  12860.65230401 </i>
    <i name="pawaedc"> -12042.23764675 </i>
    <i name="eentropy">     -0.00000000 </i>
    <i name="bandstr">   -974.13741822 </i>
    <i name="atom">   7160.47832104 </i>
    <i name="e_fr_energy">   -165.26989737 </i>
    <i name="e_wo_entrp">   -165.26989737 </i>
    <i name="e_0_energy">   -165.26989737 </i>
   </energy>
  </scstep>
  <structure>
   <crystal>
    <varray name="basis" >
     <v>       8.88678696       0.00000003       0.00000001 </v>
     <v>       0.00000003       8.88678698       0.00000002 </v>
     <v>       0.00000001       0.00000002      12.70923474 </v>
    </varray>
    <i name="volume">   1003.71159235 </i>
    <varray name="rec_basis" >
     <v>       0.11252661      -0.00000000      -0.00000000 </v>
     <v>      -0.00000000       0.11252661      -0.00000000 </v>
     <v>      -0.00000000      -0.00000000       0.07868294 </v>
    </varray>
   </crystal>
   <varray name="positions" >
    <v>       0.50000001      -0.00000000       0.46132334 </v>
    <v>      -0.00000001       0.49999999       0.46132333 </v>
    <v>       0.50000001      -0.00000002       0.01761467 </v>
    <v>       0.00000000       0.50000000       0.01761467 </v>
    <v>       0.50000000       0.00000000       0.37131076 </v>
    <v>      -0.00000000       0.50000000       0.37131076 </v>
    <v>       0.40151890       0.09848110       0.58337590 </v>
    <v>       0.59848110       0.90151890       0.58337590 </v>
    <v>       0.90151890       0.40151890       0.58337589 </v>
    <v>       0.09848110       0.59848110       0.58337590 </v>
    <v>       0.34149221       0.15850779       0.45674247 </v>
    <v>       0.65850778       0.84149222       0.45674248 </v>
    <v>       0.84149221       0.34149221       0.45674247 </v>
    <v>       0.15850779       0.65850779       0.45674247 </v>
    <v>       0.50000000      -0.00000000       0.10771870 </v>
    <v>       0.00000000       0.50000000       0.10771869 </v>
    <v>       0.40146930       0.09853070       0.89562457 </v>
    <v>       0.59853071       0.90146930       0.89562458 </v>
    <v>       0.90146930       0.40146929       0.89562458 </v>
    <v>       0.09853071       0.59853071       0.89562458 </v>
    <v>       0.34164628       0.15835373       0.02227207 </v>
    <v>       0.65835372       0.84164628       0.02227207 </v>
    <v>       0.84164627       0.34164627       0.02227207 </v>
    <v>       0.15835372       0.65835372       0.02227207 </v>
    <v>      -0.00000001      -0.00000001       0.00832042 </v>
    <v>       0.50000001       0.50000002       0.00832042 </v>
    <v>       0.69864046       0.19864045       0.75037593 </v>
    <v>       0.30135955       0.80135954       0.75037594 </v>
    <v>       0.80135953       0.69864046       0.75037594 </v>
    <v>       0.19864046       0.30135954       0.75037593 </v>
    <v>      -0.00000001       0.00000001       0.50959399 </v>
    <v>       0.50000000       0.50000000       0.50959399 </v>
    <v>       0.73402914       0.23402913       0.24899739 </v>
    <v>       0.26597088       0.76597087       0.24899738 </v>
    <v>       0.76597086       0.73402913       0.24899738 </v>
    <v>       0.23402913       0.26597086       0.24899739 </v>
    <v>       0.41382414       0.08617585       0.49906111 </v>
    <v>       0.58617587       0.91382414       0.49906110 </v>
    <v>       0.91382414       0.41382415       0.49906110 </v>
    <v>       0.08617586       0.58617586       0.49906109 </v>
    <v>       0.41377815       0.08622184       0.98015879 </v>
    <v>       0.58622185       0.91377815       0.98015879 </v>
    <v>       0.91377814       0.41377815       0.98015878 </v>
    <v>       0.08622186       0.58622185       0.98015879 </v>
    <v>      -0.00000000       0.00000000       0.25378366 </v>
    <v>       0.50000000       0.50000000       0.25378366 </v>
    <v>      -0.00000000       0.00000000       0.75369804 </v>
    <v>       0.50000000       0.50000000       0.75369804 </v>
   </varray>
  </structure>
  <varray name="forces" >
   <v>      -0.00001373       0.00001206     -11.31884530 </v>
   <v>       0.00002595       0.00001748     -11.31883245 </v>
   <v>      -0.00002339       0.00002069      11.52096568 </v>
   <v>      -0.00000873      -0.00000812      11.52097239 </v>
   <v>      -0.00000064       0.00000004       0.89221768 </v>
   <v>       0.00000369      -0.00000515       0.89221152 </v>
   <v>       0.14493632      -0.14493584      -1.75451988 </v>
   <v>      -0.14493607       0.14493787      -1.75452197 </v>
   <v>       0.14493582       0.14493755      -1.75451710 </v>
   <v>      -0.14493913      -0.14493327      -1.75452617 </v>
   <v>       0.86287181      -0.86287140       0.35738411 </v>
   <v>      -0.86286926       0.86286673       0.35738077 </v>
   <v>       0.86286712       0.86287206       0.35738255 </v>
   <v>      -0.86286810      -0.86287276       0.35738099 </v>
   <v>      -0.00000105      -0.00000146      -0.88633623 </v>
   <v>       0.00000013       0.00000118      -0.88633469 </v>
   <v>       0.13648642      -0.13648379       1.80158888 </v>
   <v>      -0.13648654       0.13648554       1.80158479 </v>
   <v>       0.13648657       0.13648561       1.80158889 </v>
   <v>      -0.13648612      -0.13648425       1.80159115 </v>
   <v>       0.83756599      -0.83756642      -0.35305946 </v>
   <v>      -0.83756442       0.83756293      -0.35305844 </v>
   <v>       0.83756134       0.83756428      -0.35305738 </v>
   <v>      -0.83756165      -0.83756538      -0.35305759 </v>
   <v>      -0.00000343       0.00000090       0.00560528 </v>
   <v>      -0.00000009      -0.00000093       0.00560339 </v>
   <v>       0.00395323       0.00396018      -0.01343387 </v>
   <v>      -0.00394854      -0.00395631      -0.01344133 </v>
   <v>      -0.00394678       0.00393874      -0.01344804 </v>
   <v>       0.00395710      -0.00394179      -0.01344165 </v>
   <v>      -0.00000029      -0.00000153      -0.00547707 </v>
   <v>      -0.00000820       0.00000945      -0.00546939 </v>
   <v>       0.04367829       0.04366694       0.01946411 </v>
   <v>      -0.04367315      -0.04368029       0.01946912 </v>
   <v>      -0.04365742       0.04366149       0.01946438 </v>
   <v>       0.04364844      -0.04365308       0.01946558 </v>
   <v>      -8.03198531       8.03196416       6.60189244 </v>
   <v>       8.03198820      -8.03199285       6.60190245 </v>
   <v>      -8.03201036      -8.03199950       6.60188816 </v>
   <v>       8.03199427       8.03199532       6.60190756 </v>
   <v>      -8.05298688       8.05300639      -6.69983872 </v>
   <v>       8.05300651      -8.05300945      -6.69984826 </v>
   <v>      -8.05298970      -8.05300686      -6.69982875 </v>
   <v>       8.05300703       8.05299985      -6.69982444 </v>
   <v>      -0.00000082       0.00000096      -0.06024263 </v>
   <v>      -0.00000354       0.00000273      -0.06024263 </v>
   <v>       0.00000015      -0.00000126      -0.06685305 </v>
   <v>      -0.00000101       0.00000058      -0.06685537 </v>
  </varray>
  <varray name="stress" >
   <v>      56.25387240      -0.00005960      -0.00004118 </v>
   <v>      -0.00005924      56.25393114      -0.00002816 </v>
   <v>      -0.00004139      -0.00002840     -13.10012859 </v>
  </varray>
  <energy>
   <i name="e_fr_energy">   -165.26989737 </i>
   <i name="e_wo_entrp">   -165.26989737 </i>
   <i name="e_0_energy">   -165.26989737 </i>
  </energy>
  <time name="totalsc">  266.48  274.75</time>
 </calculation>
 <calculation>
  <scstep>
   <time name="total">   13.47   13.47</time>
   <energy>
    <i name="alphaZ">    116.47038206 </i>
    <i name="ewald">  -4496.87867179 </i>
    <i name="hartreedc">  -2448.12244514 </i>
    <i name="XCdc">   -355.58356949 </i>
    <i name="pawpsdc">  13454.31701170 </i>
    <i name="pawaedc"> -12636.12835351 </i>
    <i name="eentropy">     -0.00000000 </i>
    <i name="bandstr">   -957.70071571 </i>
    <i name="atom">   7160.47832104 </i>
    <i name="e_fr_energy">   -163.14804083 </i>
    <i name="e_wo_entrp">   -163.14804083 </i>
    <i name="e_0_energy">   -163.14804083 </i>
   </energy>
  </scstep>
  <scstep>
   <time name="total">   13.46   20.22</time>
   <energy>
    <i name="e_fr_energy">   -167.13453514 </i>
    <i name="e_wo_entrp">   -167.13453514 </i>
    <i name="e_0_energy">   -167.13453514 </i>
   </energy>
  </scstep>
  <scstep>
   <time name="total">   13.44   21.45</time>
   <energy>
    <i name="e_fr_energy">   -168.09163237 </i>
    <i name="e_wo_entrp">   -168.09163237 </i>
    <i name="e_0_energy">   -168.09163237 </i>
   </energy>
  </scstep>
  <scstep>
   <time name="total">   13.50   13.50</time>
   <energy>
    <i name="e_fr_energy">   -168.26240304 </i>
    <i name="e_wo_entrp">   -168.26240304 </i>
    <i name="e_0_energy">   -168.26240304 </i>
   </energy>
  </scstep>
  <scstep>
   <time name="total">   13.45   13.46</time>
   <energy>
    <i name="e_fr_energy">   -168.29717498 </i>
    <i name="e_wo_entrp">   -168.29717498 </i>
    <i name="e_0_energy">   -168.29717498 </i>
   </energy>
  </scstep>
  <scstep>
   <time name="total">   13.50   23.30</time>
   <energy>
    <i name="e_fr_energy">   -168.30664194 </i>
    <i name="e_wo_entrp">   -168.30664194 </i>
    <i name="e_0_energy">   -168.30664194 </i>
   </energy>
  </scstep>
  <scstep>
   <time name="total">   13.51   13.51</time>
   <energy>
    <i name="e_fr_energy">   -168.30965264 </i>
    <i name="e_wo_entrp">   -168.30965264 </i>
    <i name="e_0_energy">   -168.30965264 </i>
   </energy>
  </scstep>
  <scstep>
   <time name="total">   13.51   13.52</time>
   <energy>
    <i name="e_fr_energy">   -168.31050507 </i>
    <i name="e_wo_entrp">   -168.31050507 </i>
    <i name="e_0_energy">   -168.31050507 </i>
   </energy>
  </scstep>
  <scstep>
   <time name="total">   13.48   13.48</time>
   <energy>
    <i name="e_fr_energy">   -168.31069331 </i>
    <i name="e_wo_entrp">   -168.31069331 </i>
    <i name="e_0_energy">   -168.31069331 </i>
   </energy>
  </scstep>
  <scstep>
   <time name="total">   13.48   13.48</time>
   <energy>
    <i name="e_fr_energy">   -168.31073077 </i>
    <i name="e_wo_entrp">   -168.31073077 </i>
    <i name="e_0_energy">   -168.31073077 </i>
   </energy>
  </scstep>
  <scstep>
   <time name="total">   13.50   13.51</time>
   <energy>
    <i name="e_fr_energy">   -168.31073874 </i>
    <i name="e_wo_entrp">   -168.31073874 </i>
    <i name="e_0_energy">   -168.31073874 </i>
   </energy>
  </scstep>
  <scstep>
   <time name="total">   14.64   14.64</time>
   <energy>
    <i name="alphaZ">    116.47038206 </i>
    <i name="ewald">  -4496.87867179 </i>
    <i name="hartreedc">  -2436.60265186 </i>
    <i name="XCdc">   -355.01380459 </i>
    <i name="pawpsdc">  12851.44891267 </i>
    <i name="pawaedc"> -12033.19374133 </i>
    <i name="eentropy">     -0.00000000 </i>
    <i name="bandstr">   -975.01948684 </i>
    <i name="atom">   7160.47832104 </i>
    <i name="e_fr_energy">   -168.31074063 </i>
    <i name="e_wo_entrp">   -168.31074063 </i>
    <i name="e_0_energy">   -168.31074063 </i>
   </energy>
  </scstep>
  <structure>
   <crystal>
    <varray name="basis" >
     <v>       8.87045173       0.00000002       0.00000001 </v>
     <v>       0.00000002       8.87045174       0.00000001 </v>
     <v>       0.00000001       0.00000001      12.60811150 </v>
    </varray>
    <i name="volume">    992.06816911 </i>
    <varray name="rec_basis" >
     <v>       0.11273383      -0.00000000      -0.00000000 </v>
     <v>      -0.00000000       0.11273383      -0.00000000 </v>
     <v>      -0.00000000      -0.00000000       0.07931402 </v>
    </varray>
   </crystal>
   <varray name="positions" >
    <v>       0.50000000      -0.00000000       0.46010145 </v>
    <v>      -0.00000001       0.49999999       0.46010144 </v>
    <v>       0.50000000      -0.00000001       0.01885079 </v>
    <v>       0.00000000       0.50000000       0.01885079 </v>
    <v>       0.50000000       0.00000000       0.37316890 </v>
    <v>      -0.00000000       0.50000000       0.37316890 </v>
    <v>       0.40175790       0.09824210       0.58098853 </v>
    <v>       0.59824210       0.90175790       0.58098853 </v>
    <v>       0.90175790       0.40175790       0.58098853 </v>
    <v>       0.09824210       0.59824210       0.58098854 </v>
    <v>       0.34356942       0.15643058       0.45812852 </v>
    <v>       0.65643057       0.84356943       0.45812853 </v>
    <v>       0.84356943       0.34356943       0.45812852 </v>
    <v>       0.15643058       0.65643058       0.45812852 </v>
    <v>       0.50000000      -0.00000000       0.10583589 </v>
    <v>       0.00000000       0.50000000       0.10583589 </v>
    <v>       0.40170998       0.09829002       0.89802354 </v>
    <v>       0.59829002       0.90170998       0.89802354 </v>
    <v>       0.90170998       0.40170998       0.89802354 </v>
    <v>       0.09829002       0.59829002       0.89802354 </v>
    <v>       0.34369548       0.15630452       0.02090632 </v>
    <v>       0.65630452       0.84369548       0.02090632 </v>
    <v>       0.84369548       0.34369548       0.02090632 </v>
    <v>       0.15630452       0.65630452       0.02090632 </v>
    <v>      -0.00000000      -0.00000000       0.00832721 </v>
    <v>       0.50000001       0.50000001       0.00832721 </v>
    <v>       0.69865838       0.19865838       0.75038145 </v>
    <v>       0.30134163       0.80134162       0.75038146 </v>
    <v>       0.80134161       0.69865838       0.75038146 </v>
    <v>       0.19865838       0.30134162       0.75038145 </v>
    <v>      -0.00000001       0.00000001       0.50961832 </v>
    <v>       0.50000000       0.50000000       0.50961832 </v>
    <v>       0.73402940       0.23402939       0.24899799 </v>
    <v>       0.26597061       0.76597061       0.24899798 </v>
    <v>       0.76597060       0.73402939       0.24899798 </v>
    <v>       0.23402939       0.26597060       0.24899799 </v>
    <v>       0.41174020       0.08825980       0.49973569 </v>
    <v>       0.58825980       0.91174020       0.49973568 </v>
    <v>       0.91174020       0.41174021       0.49973568 </v>
    <v>       0.08825980       0.58825980       0.49973567 </v>
    <v>       0.41173815       0.08826185       0.97943374 </v>
    <v>       0.58826185       0.91173815       0.97943374 </v>
    <v>       0.91173814       0.41173815       0.97943373 </v>
    <v>       0.08826186       0.58826185       0.97943374 </v>
    <v>      -0.00000000       0.00000000       0.25378741 </v>
    <v>       0.50000000       0.50000000       0.25378741 </v>
    <v>      -0.00000000       0.00000000       0.75369849 </v>
    <v>       0.50000000       0.50000000       0.75369849 </v>
   </varray>
  </structure>
  <varray name="forces" >
   <v>       0.00001485      -0.00001983      -7.78750926 </v>
   <v>       0.00000337       0.00001320      -7.78750819 </v>
   <v>      -0.00001427       0.00001941       7.96529562 </v>
   <v>      -0.00001810      -0.00001715       7.96526888 </v>
   <v>       0.00000186      -0.00000238      -0.28045223 </v>
   <v>      -0.00000130      -0.00000013      -0.28046000 </v>
   <v>      -0.08934253       0.08934211      -0.20121988 </v>
   <v>       0.08934251      -0.08934270      -0.20124119 </v>
   <v>      -0.08934376      -0.08934098      -0.20122701 </v>
   <v>       0.08934106       0.08934335      -0.20123715 </v>
   <v>      -0.39213688       0.39213628      -0.64042249 </v>
   <v>       0.39213165      -0.39213355      -0.64041920 </v>
   <v>      -0.39213566      -0.39213337      -0.64042086 </v>
   <v>       0.39213199       0.39213473      -0.64042032 </v>
   <v>      -0.00000005       0.00000080       0.29077545 </v>
   <v>      -0.00000175      -0.00000170       0.29077495 </v>
   <v>      -0.09063145       0.09063077       0.26197825 </v>
   <v>       0.09063011      -0.09062918       0.26197329 </v>
   <v>      -0.09062769      -0.09062814       0.26198426 </v>
   <v>       0.09062814       0.09062852       0.26197728 </v>
   <v>      -0.42234524       0.42234567       0.65342559 </v>
   <v>       0.42235096      -0.42234956       0.65342991 </v>
   <v>      -0.42234323      -0.42234398       0.65342387 </v>
   <v>       0.42234786       0.42234883       0.65342897 </v>
   <v>       0.00000016       0.00001333      -0.00874725 </v>
   <v>       0.00000667      -0.00001010      -0.00874191 </v>
   <v>      -0.01464173      -0.01464740      -0.01675934 </v>
   <v>       0.01464126       0.01465270      -0.01676936 </v>
   <v>       0.01465991      -0.01465763      -0.01677004 </v>
   <v>      -0.01466485       0.01465217      -0.01674907 </v>
   <v>      -0.00000744      -0.00000974      -0.02807031 </v>
   <v>       0.00001418       0.00001410      -0.02807565 </v>
   <v>       0.03186244       0.03185986       0.01000437 </v>
   <v>      -0.03185164      -0.03185490       0.01001329 </v>
   <v>      -0.03185189       0.03184440       0.01001540 </v>
   <v>       0.03184065      -0.03184815       0.00999721 </v>
   <v>      -4.34726060       4.34725854       4.88430035 </v>
   <v>       4.34727230      -4.34728094       4.88431291 </v>
   <v>      -4.34727865      -4.34726483       4.88430093 </v>
   <v>       4.34726383       4.34727271       4.88430217 </v>
   <v>      -4.37664441       4.37664572      -4.98020331 </v>
   <v>       4.37665057      -4.37663998      -4.98021292 </v>
   <v>      -4.37662368      -4.37663004      -4.98021088 </v>
   <v>       4.37662607       4.37662269      -4.98021812 </v>
   <v>      -0.00000147       0.00000310      -0.04683877 </v>
   <v>       0.00000290       0.00000289      -0.04683713 </v>
   <v>      -0.00000001       0.00000034      -0.04662016 </v>
   <v>       0.00000298       0.00000012      -0.04662099 </v>
  </varray>
  <varray name="stress" >
   <v>      48.46000331      -0.00002927      -0.00002091 </v>
   <v>      -0.00002921      48.46003529      -0.00000333 </v>
   <v>      -0.00002038      -0.00000301      21.52411094 </v>
  </varray>
  <energy>
[...]
       <r>    4.6028    0.0000 </r>
       <r>    4.6041    0.0000 </r>
       <r>    4.6143    0.0000 </r>
       <r>    4.6264    0.0000 </r>
       <r>    5.2170    0.0000 </r>
       <r>    5.2822    0.0000 </r>
       <r>    5.3827    0.0000 </r>
       <r>    5.3845    0.0000 </r>
       <r>    5.4087    0.0000 </r>
       <r>    5.7887    0.0000 </r>
       <r>    5.9076    0.0000 </r>
       <r>    6.2325    0.0000 </r>
       <r>    6.3075    0.0000 </r>
       <r>    6.5478    0.0000 </r>
       <r>    6.5855    0.0000 </r>
       <r>    6.7175    0.0000 </r>
       <r>    6.7922    0.0000 </r>
       <r>    6.8555    0.0000 </r>
       <r>    6.9661    0.0000 </r>
       <r>    6.9769    0.0000 </r>
       <r>    7.0807    0.0000 </r>
       <r>    7.1996    0.0000 </r>
       <r>    7.2426    0.0000 </r>
       <r>    7.3590    0.0000 </r>
       <r>    7.4051    0.0000 </r>
       <r>    7.5109    0.0000 </r>
       <r>    7.5199    0.0000 </r>
       <r>    7.7456    0.0000 </r>
      </set>
     </set>
    </set>
   </array>
  </eigenvalues>
  <separator name="orbital magnetization" >
   <v name="MAGDIPOLOUT">      0.00000000      0.00000000      0.00000000</v>
  </separator>
  <dos>
   <i name="efermi">      2.67851651 </i>
   <total>
    <array>
     <dimension dim="1">gridpoints</dimension>
     <dimension dim="2">spin</dimension>
     <field>energy</field>
     <field>total</field>
     <field>integrated</field>
     <set>
      <set comment="spin 1">
       <r>   -20.0315     0.0000     0.0000 </r>
       <r>   -19.9345     0.0000     0.0000 </r>
       <r>   -19.8375     0.0000     0.0000 </r>
       <r>   -19.7405     0.0000     0.0000 </r>
       <r>   -19.6435     0.0000     0.0000 </r>
       <r>   -19.5465     0.0000     0.0000 </r>
       <r>   -19.4495     0.0000     0.0000 </r>
       <r>   -19.3525     0.0000     0.0000 </r>
       <r>   -19.2555     0.0000     0.0000 </r>
       <r>   -19.1585     0.0000     0.0000 </r>
       <r>   -19.0615     0.0000     0.0000 </r>
       <r>   -18.9645     0.0000     0.0000 </r>
       <r>   -18.8675     0.0002     0.0000 </r>
       <r>   -18.7705     2.5043     0.2429 </r>
       <r>   -18.6735    63.7814     6.4297 </r>
       <r>   -18.5765    16.1749     7.9987 </r>
       <r>   -18.4795     0.0139     8.0000 </r>
       <r>   -18.3825     0.0000     8.0000 </r>
       <r>   -18.2855     0.0000     8.0000 </r>
       <r>   -18.1885     0.0000     8.0000 </r>
       <r>   -18.0915     0.0000     8.0000 </r>
       <r>   -17.9945     0.0000     8.0000 </r>
       <r>   -17.8975     0.0000     8.0000 </r>
       <r>   -17.8005     0.0000     8.0000 </r>
       <r>   -17.7035     0.0000     8.0000 </r>
       <r>   -17.6065     0.0000     8.0000 </r>
       <r>   -17.5095     0.0000     8.0000 </r>
       <r>   -17.4125     0.0000     8.0000 </r>
       <r>   -17.3155     0.0000     8.0000 </r>
       <r>   -17.2185     0.0000     8.0000 </r>
       <r>   -17.1215     0.0000     8.0000 </r>
       <r>   -17.0245     0.0000     8.0000 </r>
       <r>   -16.9275     0.0000     8.0000 </r>
       <r>   -16.8305     0.0000     8.0000 </r>
       <r>   -16.7335     0.0000     8.0000 </r>
       <r>   -16.6365     0.0092     8.0009 </r>
       <r>   -16.5395    13.4835     9.3088 </r>
       <r>   -16.4425    65.5213    15.6643 </r>
       <r>   -16.3455     3.4602    16.0000 </r>
       <r>   -16.2485     0.0004    16.0000 </r>
       <r>   -16.1515     0.0000    16.0000 </r>
       <r>   -16.0545     0.0000    16.0000 </r>
       <r>   -15.9575     0.0000    16.0000 </r>
       <r>   -15.8605     0.0000    16.0000 </r>
       <r>   -15.7635     0.0000    16.0000 </r>
       <r>   -15.6665     0.0000    16.0000 </r>
       <r>   -15.5695     0.0000    16.0000 </r>
       <r>   -15.4725     0.0000    16.0000 </r>
       <r>   -15.3755     0.0000    16.0000 </r>
       <r>   -15.2785     0.0000    16.0000 </r>
       <r>   -15.1815     0.0000    16.0000 </r>
       <r>   -15.0845     0.0000    16.0000 </r>
       <r>   -14.9875     0.0000    16.0000 </r>
       <r>   -14.8905     0.0000    16.0000 </r>
       <r>   -14.7935     0.0000    16.0000 </r>
       <r>   -14.6965     0.0000    16.0000 </r>
       <r>   -14.5995     0.0000    16.0000 </r>
       <r>   -14.5025     0.0000    16.0000 </r>
       <r>   -14.4055     0.0000    16.0000 </r>
       <r>   -14.3085     0.0000    16.0000 </r>
       <r>   -14.2115     0.0000    16.0000 </r>
       <r>   -14.1145     0.0000    16.0000 </r>
       <r>   -14.0175     0.0000    16.0000 </r>
       <r>   -13.9205     0.0000    16.0000 </r>
       <r>   -13.8235     0.0000    16.0000 </r>
       <r>   -13.7265     0.0000    16.0000 </r>
       <r>   -13.6295     0.0000    16.0000 </r>
       <r>   -13.5325     0.0000    16.0000 </r>
       <r>   -13.4355     0.0000    16.0000 </r>
       <r>   -13.3385     0.0000    16.0000 </r>
       <r>   -13.2415     0.0000    16.0000 </r>
       <r>   -13.1445     0.0000    16.0000 </r>
       <r>   -13.0475     0.0000    16.0000 </r>
       <r>   -12.9505     0.0000    16.0000 </r>
       <r>   -12.8535     0.0000    16.0000 </r>
       <r>   -12.7565     0.0000    16.0000 </r>
       <r>   -12.6595     0.0000    16.0000 </r>
       <r>   -12.5625     0.0000    16.0000 </r>
       <r>   -12.4655     0.0000    16.0000 </r>
       <r>   -12.3685     0.0000    16.0000 </r>
       <r>   -12.2715     0.0000    16.0000 </r>
       <r>   -12.1745     0.0000    16.0000 </r>
       <r>   -12.0775     0.0000    16.0000 </r>
       <r>   -11.9805     0.0000    16.0000 </r>
       <r>   -11.8835     0.0000    16.0000 </r>
       <r>   -11.7865     0.0000    16.0000 </r>
       <r>   -11.6895     0.0000    16.0000 </r>
       <r>   -11.5925     0.0000    16.0000 </r>
       <r>   -11.4955     0.0000    16.0000 </r>
       <r>   -11.3985     0.0000    16.0000 </r>
       <r>   -11.3016     0.0000    16.0000 </r>
       <r>   -11.2046     0.0000    16.0000 </r>
       <r>   -11.1076     0.0000    16.0000 </r>
       <r>   -11.0106     0.0000    16.0000 </r>
       <r>   -10.9136     0.0000    16.0000 </r>
       <r>   -10.8166     0.0000    16.0000 </r>
       <r>   -10.7196     0.1900    16.0184 </r>
       <r>   -10.6226     6.6107    16.6597 </r>
       <r>   -10.5256    35.0043    20.0551 </r>
       <r>   -10.4286    57.4915    25.6317 </r>
       <r>   -10.3316    16.1954    27.2027 </r>
       <r>   -10.2346    17.7965    28.9289 </r>
       <r>   -10.1376    48.5332    33.6366 </r>
       <r>   -10.0406    35.8825    37.1172 </r>
       <r>    -9.9436    41.6563    41.1578 </r>
       <r>    -9.8466    53.0716    46.3058 </r>
       <r>    -9.7496    17.1608    47.9704 </r>
       <r>    -9.6526     0.3055    48.0000 </r>
       <r>    -9.5556     0.0000    48.0000 </r>
       <r>    -9.4586     0.0000    48.0000 </r>
       <r>    -9.3616     0.0000    48.0000 </r>
       <r>    -9.2646     0.0000    48.0000 </r>
       <r>    -9.1676     0.0000    48.0000 </r>
       <r>    -9.0706     0.0000    48.0000 </r>
       <r>    -8.9736     0.0000    48.0000 </r>
       <r>    -8.8766     0.0000    48.0000 </r>
       <r>    -8.7796     0.0000    48.0000 </r>
       <r>    -8.6826     0.8661    48.0840 </r>
       <r>    -8.5856    47.3526    52.6772 </r>
       <r>    -8.4886    33.9310    55.9685 </r>
       <r>    -8.3916     0.3248    56.0000 </r>
       <r>    -8.2946     0.0000    56.0000 </r>
       <r>    -8.1976     0.0000    56.0000 </r>
       <r>    -8.1006     0.0036    56.0004 </r>
       <r>    -8.0036     9.3389    56.9062 </r>
       <r>    -7.9066    67.6296    63.4663 </r>
       <r>    -7.8096     5.5014    63.9999 </r>
       <r>    -7.7126     0.0010    64.0000 </r>
       <r>    -7.6156     0.0000    64.0000 </r>
       <r>    -7.5186     0.0000    64.0000 </r>
       <r>    -7.4216     0.0000    64.0000 </r>
       <r>    -7.3246     0.0000    64.0000 </r>
       <r>    -7.2276     0.0000    64.0000 </r>
       <r>    -7.1306     0.0000    64.0000 </r>
       <r>    -7.0336     0.0000    64.0000 </r>
       <r>    -6.9366     0.0000    64.0000 </r>
       <r>    -6.8396     0.0000    64.0000 </r>
       <r>    -6.7426     0.0000    64.0000 </r>
       <r>    -6.6456     0.0000    64.0000 </r>
       <r>    -6.5486     0.0000    64.0000 </r>
       <r>    -6.4516     0.0000    64.0000 </r>
       <r>    -6.3546     0.6001    64.0582 </r>
       <r>    -6.2576    41.7897    68.1118 </r>
       <r>    -6.1606    39.6080    71.9537 </r>
       <r>    -6.0636     0.4768    72.0000 </r>
       <r>    -5.9666     0.0000    72.0000 </r>
       <r>    -5.8696     0.0006    72.0001 </r>
       <r>    -5.7726     0.3474    72.0338 </r>
       <r>    -5.6756     0.7828    72.1097 </r>
       <r>    -5.5786     0.2547    72.1344 </r>
       <r>    -5.4816     4.4230    72.5634 </r>
       <r>    -5.3846     1.9101    72.7487 </r>
       <r>    -5.2876     6.2467    73.3546 </r>
       <r>    -5.1906     3.3763    73.6821 </r>
       <r>    -5.0936     6.9367    74.3550 </r>
       <r>    -4.9966    10.0108    75.3260 </r>
       <r>    -4.8996     6.8249    75.9880 </r>
       <r>    -4.8026    22.8706    78.2065 </r>
       <r>    -4.7056    55.1500    83.5560 </r>
       <r>    -4.6086    28.7894    86.3486 </r>
       <r>    -4.5116     4.4033    86.7757 </r>
       <r>    -4.4146     0.0549    86.7810 </r>
       <r>    -4.3176     3.3590    87.1068 </r>
       <r>    -4.2206    26.6637    89.6932 </r>
       <r>    -4.1236    61.8003    95.6878 </r>
       <r>    -4.0266     2.0729    95.8889 </r>
       <r>    -3.9296     0.0002    95.8889 </r>
       <r>    -3.8326     0.0012    95.8890 </r>
       <r>    -3.7356     0.4174    95.9295 </r>
       <r>    -3.6386     0.7175    95.9991 </r>
       <r>    -3.5416     0.0094    96.0000 </r>
       <r>    -3.4446     0.0000    96.0000 </r>
       <r>    -3.3476     0.0000    96.0000 </r>
       <r>    -3.2506     0.0000    96.0000 </r>
       <r>    -3.1536     0.0000    96.0000 </r>
       <r>    -3.0566     0.0000    96.0000 </r>
       <r>    -2.9596     0.0000    96.0000 </r>
       <r>    -2.8626     0.0000    96.0000 </r>
       <r>    -2.7656     0.0000    96.0000 </r>
       <r>    -2.6686     0.0000    96.0000 </r>
       <r>    -2.5716     0.0000    96.0000 </r>
       <r>    -2.4746     0.0000    96.0000 </r>
       <r>    -2.3776     0.0000    96.0000 </r>
       <r>    -2.2806     0.0000    96.0000 </r>
       <r>    -2.1836     0.0000    96.0000 </r>
       <r>    -2.0866     0.0068    96.0007 </r>
       <r>    -1.9896     2.4456    96.2379 </r>
       <r>    -1.8926    11.6034    97.3634 </r>
       <r>    -1.7956    10.1867    98.3515 </r>
       <r>    -1.6986    13.4725    99.6583 </r>
       <r>    -1.6016    17.3490   101.3412 </r>
       <r>    -1.5046    11.4624   102.4530 </r>
       <r>    -1.4076    18.4199   104.2398 </r>
       <r>    -1.3106     9.9491   105.2048 </r>
       <r>    -1.2136     8.6845   106.0472 </r>
       <r>    -1.1166    19.7321   107.9612 </r>
       <r>    -1.0196    37.0276   111.5529 </r>
       <r>    -0.9226    30.6980   114.5306 </r>
       <r>    -0.8256    21.4212   116.6084 </r>
       <r>    -0.7286    19.7926   118.5283 </r>
       <r>    -0.6316    22.6414   120.7245 </r>
       <r>    -0.5346    28.2543   123.4652 </r>
       <r>    -0.4376    24.5042   125.8421 </r>
       <r>    -0.3406    23.2521   128.0975 </r>
       <r>    -0.2436    14.3391   129.4884 </r>
       <r>    -0.1466    22.5773   131.6784 </r>
       <r>    -0.0496    23.7772   133.9848 </r>
       <r>     0.0474    34.2988   137.3117 </r>
       <r>     0.1444    50.2787   142.1887 </r>
       <r>     0.2414    35.2945   145.6123 </r>
       <r>     0.3384    39.9137   149.4839 </r>
       <r>     0.4354    29.4484   152.3404 </r>
       <r>     0.5324    21.7398   154.4491 </r>
       <r>     0.6294    40.8374   158.4103 </r>
       <r>     0.7264    61.9456   164.4190 </r>
       <r>     0.8234    45.4566   168.8283 </r>
       <r>     0.9204    18.1999   170.5937 </r>
       <r>     1.0174    24.2931   172.9501 </r>
       <r>     1.1144     2.8695   173.2285 </r>
       <r>     1.2114     3.3177   173.5503 </r>
       <r>     1.3084     2.7614   173.8181 </r>
       <r>     1.4054     3.8793   174.1944 </r>
       <r>     1.5024     2.6437   174.4509 </r>
       <r>     1.5994     3.2797   174.7690 </r>
       <r>     1.6964     3.9582   175.1529 </r>
       <r>     1.7934     2.0954   175.3562 </r>
       <r>     1.8904     4.4886   175.7916 </r>
       <r>     1.9874     1.0021   175.8888 </r>
       <r>     2.0844     0.0011   175.8889 </r>
       <r>     2.1814     0.0000   175.8889 </r>
       <r>     2.2784     0.0000   175.8889 </r>
       <r>     2.3754     0.0157   175.8904 </r>
       <r>     2.4724     0.7919   175.9672 </r>
       <r>     2.5694     0.3373   175.9999 </r>
       <r>     2.6664     0.0006   176.0000 </r>
       <r>     2.7634     0.0000   176.0000 </r>
       <r>     2.8604     0.0002   176.0000 </r>
       <r>     2.9574     0.3592   176.0349 </r>
       <r>     3.0544     1.9370   176.2227 </r>
       <r>     3.1514     1.3465   176.3534 </r>
       <r>     3.2484     4.8041   176.8193 </r>
       <r>     3.3454     8.9920   177.6916 </r>
       <r>     3.4424     7.8450   178.4525 </r>
       <r>     3.5394     9.6428   179.3879 </r>
       <r>     3.6364     8.4523   180.2078 </r>
       <r>     3.7334     3.8620   180.5824 </r>
       <r>     3.8304     1.5457   180.7323 </r>
       <r>     3.9274     4.5554   181.1742 </r>
       <r>     4.0244     3.8037   181.5431 </r>
       <r>     4.1214     4.7044   181.9994 </r>
       <r>     4.2184    14.6929   183.4247 </r>
       <r>     4.3154     8.1215   184.2124 </r>
       <r>     4.4124     4.4724   184.6463 </r>
       <r>     4.5094     8.8226   185.5020 </r>
       <r>     4.6064    21.1238   187.5510 </r>
       <r>     4.7034    53.7010   192.7600 </r>
       <r>     4.8004    12.6920   193.9911 </r>
       <r>     4.8974     0.0915   194.0000 </r>
       <r>     4.9944     0.0000   194.0000 </r>
       <r>     5.0914     0.0634   194.0061 </r>
       <r>     5.1884     2.3454   194.2336 </r>
       <r>     5.2854    16.0438   195.7899 </r>
       <r>     5.3824    30.4659   198.7451 </r>
       <r>     5.4794    17.6723   200.4593 </r>
       <r>     5.5764     3.0106   200.7513 </r>
       <r>     5.6734     2.9539   201.0378 </r>
       <r>     5.7704     9.3802   201.9477 </r>
       <r>     5.8674    11.5975   203.0727 </r>
       <r>     5.9644    14.1665   204.4468 </r>
       <r>     6.0614    14.4914   205.8525 </r>
       <r>     6.1584     6.7816   206.5103 </r>
       <r>     6.2554    13.9570   207.8641 </r>
       <r>     6.3524     7.9663   208.6368 </r>
       <r>     6.4494    10.6421   209.6691 </r>
       <r>     6.5464    16.3349   211.2536 </r>
       <r>     6.6434    28.7346   214.0408 </r>
       <r>     6.7404    23.9317   216.3622 </r>
       <r>     6.8374    28.4223   219.1191 </r>
       <r>     6.9344    15.4465   220.6175 </r>
       <r>     7.0314    27.0411   223.2404 </r>
       <r>     7.1284    27.9558   225.9521 </r>
       <r>     7.2254    25.6787   228.4430 </r>
       <r>     7.3224    28.2656   231.1847 </r>
       <r>     7.4194    28.2336   233.9234 </r>
       <r>     7.5164    23.1909   236.1729 </r>
       <r>     7.6134    21.6685   238.2747 </r>
       <r>     7.7104    13.6424   239.5980 </r>
       <r>     7.8074     3.9592   239.9821 </r>
       <r>     7.9044     0.1850   240.0000 </r>
       <r>     8.0014     0.0000   240.0000 </r>
       <r>     8.0984     0.0000   240.0000 </r>
       <r>     8.1954     0.0000   240.0000 </r>
       <r>     8.2924     0.0000   240.0000 </r>
       <r>     8.3894     0.0000   240.0000 </r>
       <r>     8.4864     0.0000   240.0000 </r>
       <r>     8.5834     0.0000   240.0000 </r>
       <r>     8.6804     0.0000   240.0000 </r>
       <r>     8.7774     0.0000   240.0000 </r>
       <r>     8.8744     0.0000   240.0000 </r>
       <r>     8.9714     0.0000   240.0000 </r>
       <r>     9.0684     0.0000   240.0000 </r>
      </set>
     </set>
    </array>
   </total>
  </dos>
 </calculation>
 <structure name="finalpos" >
  <crystal>
   <varray name="basis" >
    <v>       8.82883214       0.00000230       0.00000106 </v>
    <v>       0.00000226       8.82883040      -0.00000234 </v>
    <v>       0.00000143      -0.00000326      12.39108804 </v>
   </varray>
   <i name="volume">    965.86377180 </i>
   <varray name="rec_basis" >
    <v>       0.11326526      -0.00000003      -0.00000001 </v>
    <v>      -0.00000003       0.11326529       0.00000003 </v>
    <v>      -0.00000001       0.00000002       0.08070316 </v>
   </varray>
  </crystal>
  <varray name="positions" >
   <v>       0.50000116      -0.00000112       0.45577252 </v>
   <v>       0.00000010       0.49999979       0.45577267 </v>
   <v>       0.49999858       0.00000128       0.03159996 </v>
   <v>      -0.00000105       0.49999925       0.03159991 </v>
   <v>       0.49999925       0.00000079       0.36747565 </v>
   <v>       0.00000052       0.49999944       0.36747545 </v>
   <v>       0.39853445       0.10146554       0.58665250 </v>
   <v>       0.60146625       0.89853383       0.58665104 </v>
   <v>       0.89853367       0.39853452       0.58665222 </v>
   <v>       0.10146550       0.60146625       0.58665216 </v>
   <v>       0.33831130       0.16168866       0.45903311 </v>
   <v>       0.66168710       0.83831292       0.45903378 </v>
   <v>       0.83831206       0.33831160       0.45903323 </v>
   <v>       0.16168850       0.66168792       0.45903316 </v>
   <v>       0.50000079      -0.00000092       0.11988793 </v>
   <v>      -0.00000025       0.50000082       0.11988823 </v>
   <v>       0.39876435       0.10123554       0.90063928 </v>
   <v>       0.60123506       0.89876486       0.90063745 </v>
   <v>       0.89876523       0.39876439       0.90063885 </v>
   <v>       0.10123603       0.60123514       0.90063729 </v>
   <v>       0.33832626       0.16167363       0.02822415 </v>
   <v>       0.66167574       0.83832418       0.02822509 </v>
   <v>       0.83832557       0.33832604       0.02822463 </v>
   <v>       0.16167569       0.66167612       0.02822530 </v>
   <v>      -0.00000017      -0.00000062      -0.00670458 </v>
   <v>       0.50000009       0.50000049      -0.00670458 </v>
   <v>       0.69179670       0.19179641       0.74425124 </v>
   <v>       0.30820343       0.80820322       0.74425140 </v>
   <v>       0.80820344       0.69179666       0.74425125 </v>
   <v>       0.19179648       0.30820365       0.74425140 </v>
   <v>       0.00000054       0.00000015       0.49349835 </v>
   <v>       0.49999982       0.49999952       0.49349834 </v>
   <v>       0.74510996       0.24510989       0.24330769 </v>
   <v>       0.25489004       0.75488995       0.24330747 </v>
   <v>       0.75489007       0.74510993       0.24330818 </v>
   <v>       0.24510982       0.25489020       0.24330686 </v>
   <v>       0.40657854       0.09342148       0.50453819 </v>
   <v>       0.59342209       0.90657799       0.50453884 </v>
   <v>       0.90657791       0.40657808       0.50453856 </v>
   <v>       0.09342190       0.59342198       0.50453867 </v>
   <v>       0.40662315       0.09337669       0.98276193 </v>
   <v>       0.59337598       0.90662390       0.98276276 </v>
   <v>       0.90662310       0.40662300       0.98276206 </v>
   <v>       0.09337634       0.59337616       0.98276266 </v>
   <v>      -0.00000019       0.00000013       0.24811190 </v>
   <v>       0.49999978       0.50000016       0.24811190 </v>
   <v>      -0.00000043       0.00000012       0.74812196 </v>
   <v>       0.49999975       0.50000037       0.74812195 </v>
  </varray>
 </structure>
</modeling>
