ortho-FASnI3                            
           1
     8.837900    0.000000    0.000000
     0.000000    8.837900    0.000000
     0.000000    0.000000   12.406600
   C    H    I    N    Sn
     4    20    12     8     4
Direct configuration=     1
   0.50000000  0.00000000  0.45600000
   0.00000000  0.50000000  0.45600000
   0.50000000  0.00000000  0.02300000
   0.00000000  0.50000000  0.02300000
   0.50000000  0.00000000  0.37940600
   0.00000000  0.50000000  0.37940600
   0.40231300  0.09768700  0.57297500
   0.59768700  0.90231300  0.57297500
   0.90231300  0.40231300  0.57297500
   0.09768700  0.59768700  0.57297500
   0.34839400  0.15160600  0.46278100
   0.65160600  0.84839400  0.46278100
   0.84839400  0.34839400  0.46278100
   0.15160600  0.65160600  0.46278100
   0.50000000  0.00000000  0.09951600
   0.00000000  0.50000000  0.09951600
   0.40226900  0.09773100  0.90607600
   0.59773100  0.90226900  0.90607600
   0.90226900  0.40226900  0.90607600
   0.09773100  0.59773100  0.90607600
   0.34845500  0.15154500  0.01632200
   0.65154500  0.84845500  0.01632200
   0.84845500  0.34845500  0.01632200
   0.15154500  0.65154500  0.01632200
   0.00000000  0.00000000  0.00835000
   0.50000000  0.50000000  0.00835000
   0.69870000  0.19870000  0.75040000
   0.30130000  0.80130000  0.75040000
   0.80130000  0.69870000  0.75040000
   0.19870000  0.30130000  0.75040000
   0.00000000  0.00000000  0.50970000
   0.50000000  0.50000000  0.50970000
   0.73403000  0.23403000  0.24900000
   0.26597000  0.76597000  0.24900000
   0.76597000  0.73403000  0.24900000
   0.23403000  0.26597000  0.24900000
   0.40690000  0.09310000  0.50200000
   0.59310000  0.90690000  0.50200000
   0.90690000  0.40690000  0.50200000
   0.09310000  0.59310000  0.50200000
   0.40700000  0.09300000  0.97700000
   0.59300000  0.90700000  0.97700000
   0.90700000  0.40700000  0.97700000
   0.09300000  0.59300000  0.97700000
   0.00000000  0.00000000  0.25380000
   0.50000000  0.50000000  0.25380000
   0.00000000  0.00000000  0.75370000
   0.50000000  0.50000000  0.75370000
ortho-FASnI3                            
           1
     9.078699    0.000000    0.000000
     0.000000    9.078699    0.000000
     0.000000    0.000000   13.897268
   C    H    I    N    Sn
     4    20    12     8     4
Direct configuration=     2
   0.50000003 -0.00000001  0.47445140
  -0.00000006  0.49999995  0.47445135
   0.50000003 -0.00000009  0.00433374
   0.00000002  0.50000001  0.00433375
   0.50000000  0.00000000  0.35134686
  -0.00000001  0.50000000  0.35134687
   0.39877042  0.10122957  0.60902585
   0.60122959  0.89877041  0.60902584
   0.89877040  0.39877042  0.60902583
   0.10122959  0.60122958  0.60902587
   0.31760418  0.18239581  0.44185069
   0.68239579  0.81760423  0.44185070
   0.81760420  0.31760421  0.44185070
   0.18239583  0.68239582  0.44185067
   0.50000001 -0.00000001  0.12794760
   0.00000000  0.50000000  0.12794758
   0.39870141  0.10129858  0.86985001
   0.60129859  0.89870141  0.86985003
   0.89870141  0.39870141  0.86985003
   0.10129859  0.60129859  0.86985003
   0.31808037  0.18191964  0.03694570
   0.68191962  0.81808038  0.03694569
   0.81808036  0.31808036  0.03694570
   0.18191963  0.68191963  0.03694570
  -0.00000002 -0.00000003  0.00824748
   0.50000003  0.50000007  0.00824747
   0.69843441  0.19843436  0.75031656
   0.30156566  0.80156562  0.75031659
   0.80156558  0.69843439  0.75031659
   0.19843437  0.30156563  0.75031657
  -0.00000004  0.00000004  0.50933255
   0.50000002  0.50000000  0.50933256
   0.73402615  0.23402613  0.24899094
   0.26597391  0.76597388  0.24899091
   0.76597384  0.73402613  0.24899091
   0.23402611  0.26597386  0.24899094
   0.43778951  0.06221044  0.49181344
   0.56221050  0.93778954  0.49181339
   0.93778953  0.43778955  0.49181340
   0.06221046  0.56221046  0.49181336
   0.43723824  0.06276171  0.98794876
   0.56276176  0.93723824  0.98794876
   0.93723819  0.43723822  0.98794875
   0.06276180  0.56276178  0.98794877
  -0.00000001  0.00000001  0.25374338
   0.50000001  0.50000002  0.25374337
  -0.00000002  0.00000001  0.75369319
   0.50000001  0.50000002  0.75369320
ortho-FASnI3                            
           1
     8.886787    0.000000    0.000000
     0.000000    8.886787    0.000000
     0.000000    0.000000   12.709235
   C    H    I    N    Sn
     4    20    12     8     4
Direct configuration=     3
   0.50000001 -0.00000000  0.46132334
  -0.00000001  0.49999999  0.46132333
   0.50000001 -0.00000002  0.01761467
   0.00000000  0.50000000  0.01761467
   0.50000000  0.00000000  0.37131076
  -0.00000000  0.50000000  0.37131076
   0.40151890  0.09848110  0.58337590
   0.59848110  0.90151890  0.58337590
   0.90151890  0.40151890  0.58337589
   0.09848110  0.59848110  0.58337590
   0.34149221  0.15850779  0.45674247
   0.65850778  0.84149222  0.45674248
   0.84149221  0.34149221  0.45674247
   0.15850779  0.65850779  0.45674247
   0.50000000 -0.00000000  0.10771870
   0.00000000  0.50000000  0.10771869
   0.40146930  0.09853070  0.89562457
   0.59853071  0.90146930  0.89562458
   0.90146930  0.40146929  0.89562458
   0.09853071  0.59853071  0.89562458
   0.34164628  0.15835373  0.02227207
   0.65835372  0.84164628  0.02227207
   0.84164627  0.34164627  0.02227207
   0.15835372  0.65835372  0.02227207
  -0.00000001 -0.00000001  0.00832042
   0.50000001  0.50000002  0.00832042
   0.69864046  0.19864045  0.75037593
   0.30135955  0.80135954  0.75037594
   0.80135953  0.69864046  0.75037594
   0.19864046  0.30135954  0.75037593
  -0.00000001  0.00000001  0.50959399
   0.50000000  0.50000000  0.50959399
   0.73402914  0.23402913  0.24899739
   0.26597088  0.76597087  0.24899738
   0.76597086  0.73402913  0.24899738
   0.23402913  0.26597086  0.24899739
   0.41382414  0.08617585  0.49906111
   0.58617587  0.91382414  0.49906110
   0.91382414  0.41382415  0.49906110
   0.08617586  0.58617586  0.49906109
   0.41377815  0.08622184  0.98015879
   0.58622185  0.91377815  0.98015879
   0.91377814  0.41377815  0.98015878
   0.08622186  0.58622185  0.98015879
  -0.00000000  0.00000000  0.25378366
   0.50000000  0.50000000  0.25378366
  -0.00000000  0.00000000  0.75369804
   0.50000000  0.50000000  0.75369804
ortho-FASnI3                            
           1
     8.870452    0.000000    0.000000
     0.000000    8.870452    0.000000
     0.000000    0.000000   12.608111
   C    H    I    N    Sn
     4    20    12     8     4
Direct configuration=     4
   0.50000000 -0.00000000  0.46010145
  -0.00000001  0.49999999  0.46010144
   0.50000000 -0.00000001  0.01885079
   0.00000000  0.50000000  0.01885079
   0.50000000  0.00000000  0.37316890
  -0.00000000  0.50000000  0.37316890
   0.40175790  0.09824210  0.58098853
   0.59824210  0.90175790  0.58098853
   0.90175790  0.40175790  0.58098853
   0.09824210  0.59824210  0.58098854
   0.34356942  0.15643058  0.45812852
   0.65643057  0.84356943  0.45812853
   0.84356943  0.34356943  0.45812852
   0.15643058  0.65643058  0.45812852
   0.50000000 -0.00000000  0.10583589
   0.00000000  0.50000000  0.10583589
   0.40170998  0.09829002  0.89802354
   0.59829002  0.90170998  0.89802354
   0.90170998  0.40170998  0.89802354
   0.09829002  0.59829002  0.89802354
   0.34369548  0.15630452  0.02090632
   0.65630452  0.84369548  0.02090632
   0.84369548  0.34369548  0.02090632
   0.15630452  0.65630452  0.02090632
  -0.00000000 -0.00000000  0.00832721
   0.50000001  0.50000001  0.00832721
   0.69865838  0.19865838  0.75038145
   0.30134163  0.80134162  0.75038146
   0.80134161  0.69865838  0.75038146
   0.19865838  0.30134162  0.75038145
  -0.00000001  0.00000001  0.50961832
   0.50000000  0.50000000  0.50961832
   0.73402940  0.23402939  0.24899799
   0.26597061  0.76597061  0.24899798
   0.76597060  0.73402939  0.24899798
   0.23402939  0.26597060  0.24899799
   0.41174020  0.08825980  0.49973569
   0.58825980  0.91174020  0.49973568
   0.91174020  0.41174021  0.49973568
   0.08825980  0.58825980  0.49973567
   0.41173815  0.08826185  0.97943374
   0.58826185  0.91173815  0.97943374
   0.91173814  0.41173815  0.97943373
   0.08826186  0.58826185  0.97943374
  -0.00000000  0.00000000  0.25378741
   0.50000000  0.50000000  0.25378741
  -0.00000000  0.00000000  0.75369849
   0.50000000  0.50000000  0.75369849
ortho-FASnI3                            
           1
     8.861401    0.000000    0.000000
     0.000000    8.861401    0.000000
     0.000000    0.000000   12.552083
   C    H    I    N    Sn
     4    20    12     8     4
Direct configuration=     5
   0.50000000 -0.00000000  0.45941902
  -0.00000001  0.49999999  0.45941901
   0.50000000 -0.00000001  0.01954116
   0.00000000  0.50000000  0.01954117
   0.50000000  0.00000000  0.37420668
  -0.00000000  0.50000000  0.37420668
   0.40189056  0.09810944  0.57965518
   0.59810944  0.90189056  0.57965518
   0.90189056  0.40189056  0.57965517
   0.09810944  0.59810944  0.57965518
   0.34472245  0.15527755  0.45890264
   0.65527755  0.84472245  0.45890264
   0.84472245  0.34472245  0.45890264
   0.15527755  0.65527755  0.45890264
   0.50000000 -0.00000000  0.10478434
   0.00000000  0.50000000  0.10478434
   0.40184358  0.09815642  0.89936337
   0.59815642  0.90184358  0.89936337
   0.90184358  0.40184358  0.89936337
   0.09815642  0.59815642  0.89936337
   0.34483296  0.15516704  0.02014355
   0.65516704  0.84483296  0.02014355
   0.84483296  0.34483295  0.02014355
   0.15516704  0.65516704  0.02014355
  -0.00000000 -0.00000000  0.00833100
   0.50000000  0.50000001  0.00833100
   0.69866833  0.19866832  0.75038454
   0.30133168  0.80133167  0.75038455
   0.80133167  0.69866833  0.75038454
   0.19866832  0.30133168  0.75038454
  -0.00000001  0.00000001  0.50963191
   0.50000000  0.50000000  0.50963191
   0.73402954  0.23402954  0.24899832
   0.26597047  0.76597046  0.24899832
   0.76597046  0.73402954  0.24899832
   0.23402954  0.26597046  0.24899832
   0.41058344  0.08941655  0.50011244
   0.58941656  0.91058344  0.50011243
   0.91058344  0.41058345  0.50011244
   0.08941656  0.58941655  0.50011243
   0.41060578  0.08939421  0.97902879
   0.58939422  0.91060578  0.97902879
   0.91060577  0.41060578  0.97902879
   0.08939422  0.58939422  0.97902879
  -0.00000000  0.00000000  0.25378951
   0.50000000  0.50000000  0.25378951
  -0.00000000  0.00000000  0.75369874
   0.50000000  0.50000000  0.75369874
ortho-FASnI3                            
           1
     9.104167    0.000000    0.000000
     0.000000    9.104167    0.000000
     0.000000    0.000000   13.066902
   C    H    I    N    Sn
     4    20    12     8     4
Direct configuration=     6
   0.49999994  0.00000008  0.44398932
  -0.00000002  0.49999997  0.44398931
   0.50000002 -0.00000004  0.03542702
   0.00000002  0.50000002  0.03542701
   0.50000000  0.00000001  0.36658160
  -0.00000001  0.50000000  0.36658159
   0.40037153  0.09962846  0.58781120
   0.59962847  0.90037154  0.58781121
   0.90037153  0.40037153  0.58781120
   0.09962847  0.59962847  0.58781120
   0.33444728  0.16555271  0.45146125
   0.66555275  0.83444725  0.45146123
   0.83444728  0.33444728  0.45146125
   0.16555274  0.66555274  0.45146123
   0.50000001 -0.00000001  0.11251402
   0.00000000  0.50000000  0.11251401
   0.40032733  0.09967267  0.89137983
   0.59967267  0.90032732  0.89137987
   0.90032732  0.40032733  0.89137985
   0.09967268  0.59967268  0.89137987
   0.33450435  0.16549565  0.02757537
   0.66549563  0.83450437  0.02757535
   0.83450435  0.33450435  0.02757536
   0.16549564  0.66549564  0.02757536
  -0.00000004 -0.00000003  0.00826609
   0.50000002  0.50000004  0.00826610
   0.69851895  0.19851893  0.75031271
   0.30148107  0.80148105  0.75031273
   0.80148103  0.69851896  0.75031274
   0.19851895  0.30148104  0.75031270
   0.00000000  0.00000004  0.50944573
   0.50000000  0.49999998  0.50944574
   0.73414031  0.23414031  0.24901455
   0.26585970  0.76585969  0.24901453
   0.76585965  0.73414034  0.24901452
   0.23414035  0.26585965  0.24901456
   0.40505398  0.09494601  0.51099695
   0.59494600  0.90505402  0.51099697
   0.90505400  0.40505397  0.51099694
   0.09494599  0.59494599  0.51099696
   0.40480800  0.09519200  0.96800295
   0.59519205  0.90480794  0.96800294
   0.90480796  0.40480798  0.96800294
   0.09519206  0.59519207  0.96800294
  -0.00000001 -0.00000000  0.25365941
   0.50000000  0.50000000  0.25365941
  -0.00000001  0.00000000  0.75358719
   0.50000000  0.50000000  0.75358719
ortho-FASnI3                            
           1
     8.926599    0.000000    0.000000
     0.000000    8.926599    0.000000
     0.000000    0.000000   12.690344
   C    H    I    N    Sn
     4    20    12     8     4
Direct configuration=     7
   0.49999998  0.00000002  0.45483053
  -0.00000001  0.49999999  0.45483052
   0.50000001 -0.00000002  0.02426531
   0.00000001  0.50000001  0.02426530
   0.50000000  0.00000000  0.37193913
  -0.00000000  0.50000000  0.37193912
   0.40145298  0.09854702  0.58208062
   0.59854702  0.90145298  0.58208062
   0.90145298  0.40145298  0.58208061
   0.09854702  0.59854702  0.58208062
   0.34176251  0.15823748  0.45668972
   0.65823749  0.84176251  0.45668971
   0.84176251  0.34176251  0.45668972
   0.15823749  0.65823749  0.45668971
   0.50000000 -0.00000000  0.10708300
   0.00000000  0.50000000  0.10708299
   0.40140680  0.09859320  0.89698922
   0.59859320  0.90140680  0.89698923
   0.90140680  0.40140680  0.89698923
   0.09859320  0.59859320  0.89698924
   0.34185763  0.15814237  0.02235362
   0.65814237  0.84185763  0.02235362
   0.84185763  0.34185763  0.02235362
   0.15814237  0.65814237  0.02235362
  -0.00000001 -0.00000001  0.00831170
   0.50000001  0.50000002  0.00831170
   0.69862530  0.19862529  0.75036318
   0.30137471  0.80137470  0.75036319
   0.80137469  0.69862530  0.75036319
   0.19862530  0.30137470  0.75036318
  -0.00000000  0.00000001  0.50957655
   0.50000000  0.49999999  0.50957655
   0.73406145  0.23406145  0.24900315
   0.26593856  0.76593855  0.24900314
   0.76593854  0.73406146  0.24900314
   0.23406146  0.26593854  0.24900315
   0.40899059  0.09100941  0.50334928
   0.59100941  0.90899060  0.50334928
   0.90899059  0.40899059  0.50334927
   0.09100940  0.59100940  0.50334927
   0.40893563  0.09106436  0.97574992
   0.59106438  0.90893562  0.97574992
   0.90893562  0.40893563  0.97574992
   0.09106439  0.59106439  0.97574992
  -0.00000000  0.00000000  0.25375082
   0.50000000  0.50000000  0.25375082
  -0.00000000  0.00000000  0.75366557
   0.50000000  0.50000000  0.75366557
ortho-FASnI3                            
           1
     8.922851    0.000000    0.000000
     0.000000    8.922851    0.000000
     0.000000    0.000000   12.682397
   C    H    I    N    Sn
     4    20    12     8     4
Direct configuration=     8
   0.49999999  0.00000002  0.45506613
  -0.00000001  0.49999999  0.45506612
   0.50000001 -0.00000002  0.02402274
   0.00000001  0.50000001  0.02402274
   0.50000000  0.00000000  0.37205556
  -0.00000000  0.50000000  0.37205555
   0.40147626  0.09852374  0.58195608
   0.59852374  0.90147626  0.58195609
   0.90147626  0.40147626  0.58195608
   0.09852374  0.59852374  0.58195609
   0.34191998  0.15808002  0.45680334
   0.65808003  0.84191997  0.45680334
   0.84191998  0.34191998  0.45680334
   0.15808003  0.65808003  0.45680333
   0.50000000 -0.00000000  0.10696497
   0.00000000  0.50000000  0.10696496
   0.40143003  0.09856997  0.89711112
   0.59856997  0.90143003  0.89711114
   0.90143003  0.40143003  0.89711113
   0.09856997  0.59856997  0.89711114
   0.34201591  0.15798409  0.02224015
   0.65798408  0.84201592  0.02224014
   0.84201591  0.34201591  0.02224014
   0.15798409  0.65798409  0.02224014
  -0.00000001 -0.00000001  0.00831269
   0.50000001  0.50000002  0.00831269
   0.69862759  0.19862758  0.75036427
   0.30137242  0.80137241  0.75036429
   0.80137240  0.69862759  0.75036429
   0.19862758  0.30137241  0.75036427
  -0.00000000  0.00000001  0.50957939
   0.50000000  0.49999999  0.50957939
   0.73405975  0.23405975  0.24900290
   0.26594026  0.76594025  0.24900289
   0.76594024  0.73405976  0.24900289
   0.23405976  0.26594024  0.24900290
   0.40907532  0.09092467  0.50318308
   0.59092467  0.90907534  0.50318308
   0.90907533  0.40907533  0.50318307
   0.09092467  0.59092467  0.50318307
   0.40902448  0.09097551  0.97591828
   0.59097553  0.90902447  0.97591828
   0.90902447  0.40902447  0.97591828
   0.09097554  0.59097554  0.97591828
  -0.00000000  0.00000000  0.25375281
   0.50000000  0.50000000  0.25375281
  -0.00000000  0.00000000  0.75366727
   0.50000000  0.50000000  0.75366727
ortho-FASnI3                            
           1
     8.953368   -0.000000   -0.000000
    -0.000000    8.953368    0.000000
    -0.000000    0.000000   12.779467
   C    H    I    N    Sn
     4    20    12     8     4
Direct configuration=     9
   0.50000003 -0.00000001  0.45623677
   0.00000002  0.50000002  0.45623678
   0.49999999  0.00000000  0.02280003
  -0.00000001  0.49999999  0.02280002
   0.49999999  0.00000001  0.36730066
  -0.00000000  0.50000000  0.36730064
   0.40089761  0.09910239  0.58482336
   0.59910239  0.90089761  0.58482336
   0.90089761  0.40089761  0.58482335
   0.09910239  0.59910239  0.58482334
   0.34129483  0.15870516  0.45709590
   0.65870516  0.84129485  0.45709590
   0.84129484  0.34129484  0.45709590
   0.15870515  0.65870515  0.45709590
   0.50000000 -0.00000001  0.11188332
  -0.00000000  0.50000000  0.11188332
   0.40083663  0.09916337  0.89427418
   0.59916337  0.90083663  0.89427417
   0.90083663  0.40083663  0.89427418
   0.09916337  0.59916337  0.89427418
   0.34132885  0.15867114  0.02191535
   0.65867117  0.84132883  0.02191536
   0.84132884  0.34132884  0.02191535
   0.15867117  0.65867117  0.02191535
  -0.00000001 -0.00000000  0.00841334
   0.50000001  0.50000001  0.00841334
   0.69856942  0.19856942  0.75031160
   0.30143058  0.80143057  0.75031160
   0.80143056  0.69856943  0.75031161
   0.19856943  0.30143058  0.75031160
  -0.00000001  0.00000001  0.50949116
   0.50000000  0.50000000  0.50949116
   0.73420416  0.23420417  0.24903988
   0.26579585  0.76579584  0.24903988
   0.76579582  0.73420418  0.24903988
   0.23420418  0.26579582  0.24903989
   0.40545830  0.09454169  0.50182691
   0.59454168  0.90545835  0.50182689
   0.90545832  0.40545832  0.50182690
   0.09454167  0.59454167  0.50182689
   0.40557831  0.09442167  0.97742228
   0.59442168  0.90557833  0.97742229
   0.90557832  0.40557834  0.97742230
   0.09442168  0.59442166  0.97742231
  -0.00000001  0.00000000  0.25356856
   0.50000000  0.50000000  0.25356856
  -0.00000000 -0.00000000  0.75346726
   0.50000000  0.50000000  0.75346726
ortho-FASnI3                            
           1
     8.933363   -0.000000   -0.000000
    -0.000000    8.933363    0.000000
    -0.000000    0.000000   12.715834
   C    H    I    N    Sn
     4    20    12     8     4
Direct configuration=    10
   0.50000000  0.00000001  0.45547521
   0.00000000  0.50000000  0.45547521
   0.50000000 -0.00000001  0.02359547
   0.00000000  0.50000000  0.02359546
   0.50000000  0.00000000  0.37039397
  -0.00000000  0.50000000  0.37039396
   0.40127564  0.09872436  0.58295805
   0.59872436  0.90127564  0.58295805
   0.90127564  0.40127564  0.58295804
   0.09872436  0.59872436  0.58295804
   0.34170324  0.15829676  0.45690558
   0.65829676  0.84170324  0.45690557
   0.84170324  0.34170324  0.45690558
   0.15829676  0.65829676  0.45690557
   0.50000000 -0.00000001  0.10868368
  -0.00000000  0.50000000  0.10868367
   0.40122430  0.09877570  0.89611976
   0.59877570  0.90122430  0.89611976
   0.90122430  0.40122430  0.89611976
   0.09877570  0.59877570  0.89611977
   0.34177771  0.15822229  0.02212665
   0.65822230  0.84177770  0.02212664
   0.84177770  0.34177770  0.02212664
   0.15822230  0.65822230  0.02212665
  -0.00000001 -0.00000001  0.00834786
   0.50000001  0.50000001  0.00834786
   0.69860742  0.19860742  0.75034587
   0.30139259  0.80139258  0.75034588
   0.80139257  0.69860743  0.75034588
   0.19860742  0.30139258  0.75034587
  -0.00000001  0.00000001  0.50954856
   0.50000000  0.49999999  0.50954856
   0.73410982  0.23410982  0.24901582
   0.26589019  0.76589018  0.24901581
   0.76589017  0.73410983  0.24901581
   0.23410983  0.26589017  0.24901583
   0.40782129  0.09217870  0.50270917
   0.59217870  0.90782132  0.50270916
   0.90782130  0.40782130  0.50270916
   0.09217869  0.59217869  0.50270916
   0.40782968  0.09217031  0.97644385
   0.59217033  0.90782968  0.97644385
   0.90782968  0.40782969  0.97644385
   0.09217033  0.59217032  0.97644386
  -0.00000000  0.00000000  0.25368842
   0.50000000  0.50000000  0.25368842
  -0.00000000  0.00000000  0.75359738
   0.50000000  0.50000000  0.75359738
ortho-FASnI3                            
           1
     8.926541    0.000000    0.000000
     0.000000    8.926541    0.000000
     0.000000    0.000000   12.675736
   C    H    I    N    Sn
     4    20    12     8     4
Direct configuration=    11
   0.50000000  0.00000000  0.45582155
   0.00000001  0.50000001  0.45582152
   0.49999999  0.00000001  0.02339211
   0.00000002  0.50000001  0.02339210
   0.50000000  0.00000000  0.36907981
  -0.00000000  0.50000000  0.36907980
   0.40078950  0.09921050  0.58296325
   0.59921050  0.90078950  0.58296324
   0.90078950  0.40078950  0.58296324
   0.09921050  0.59921050  0.58296323
   0.34106535  0.15893465  0.45712998
   0.65893463  0.84106537  0.45712999
   0.84106535  0.34106535  0.45712998
   0.15893463  0.65893463  0.45712998
   0.50000000 -0.00000001  0.11005997
  -0.00000000  0.50000000  0.11005996
   0.40073911  0.09926090  0.89616658
   0.59926090  0.90073910  0.89616657
   0.90073910  0.40073910  0.89616658
   0.09926090  0.59926090  0.89616659
   0.34111283  0.15888717  0.02188315
   0.65888719  0.84111282  0.02188316
   0.84111283  0.34111282  0.02188316
   0.15888718  0.65888718  0.02188316
  -0.00000001 -0.00000000  0.00844559
   0.50000000  0.50000000  0.00844557
   0.69856074  0.19856075  0.75030286
   0.30143926  0.80143924  0.75030285
   0.80143924  0.69856075  0.75030286
   0.19856077  0.30143926  0.75030286
   0.00000001 -0.00000000  0.50951762
   0.49999998  0.50000001  0.50951763
   0.73423717  0.23423716  0.24904649
   0.26576283  0.76576284  0.24904649
   0.76576283  0.73423719  0.24904648
   0.23423717  0.26576282  0.24904649
   0.40781373  0.09218626  0.50297319
   0.59218628  0.90781372  0.50297319
   0.90781374  0.40781373  0.50297319
   0.09218630  0.59218630  0.50297319
   0.40783929  0.09216071  0.97620944
   0.59216070  0.90783930  0.97620943
   0.90783930  0.40783930  0.97620942
   0.09216069  0.59216068  0.97620943
  -0.00000000 -0.00000000  0.25350975
   0.50000000  0.50000000  0.25350975
   0.00000000 -0.00000000  0.75340379
   0.50000000  0.50000000  0.75340379
ortho-FASnI3                            
           1
     8.924953    0.000000    0.000000
     0.000000    8.924953    0.000000
     0.000000    0.000000   12.666405
   C    H    I    N    Sn
     4    20    12     8     4
Direct configuration=    12
   0.50000000  0.00000000  0.45590241
   0.00000001  0.50000001  0.45590238
   0.49999998  0.00000001  0.02334463
   0.00000002  0.50000001  0.02334462
   0.50000000  0.00000000  0.36877300
  -0.00000000  0.50000000  0.36877299
   0.40067627  0.09932372  0.58296446
   0.59932372  0.90067628  0.58296445
   0.90067627  0.40067627  0.58296446
   0.09932373  0.59932373  0.58296444
   0.34091678  0.15908321  0.45718237
   0.65908320  0.84091680  0.45718238
   0.84091678  0.34091678  0.45718236
   0.15908320  0.65908320  0.45718238
   0.50000000 -0.00000001  0.11038128
  -0.00000000  0.50000000  0.11038127
   0.40062610  0.09937390  0.89617751
   0.59937391  0.90062609  0.89617750
   0.90062610  0.40062610  0.89617751
   0.09937390  0.59937390  0.89617752
   0.34095798  0.15904202  0.02182631
   0.65904204  0.84095796  0.02182632
   0.84095797  0.34095797  0.02182631
   0.15904203  0.65904203  0.02182632
  -0.00000000 -0.00000000  0.00846840
   0.50000000  0.50000000  0.00846838
   0.69854987  0.19854988  0.75029282
   0.30145013  0.80145011  0.75029281
   0.80145011  0.69854988  0.75029282
   0.19854990  0.30145013  0.75029282
   0.00000001 -0.00000001  0.50951040
   0.49999998  0.50000001  0.50951041
   0.73426683  0.23426682  0.24905364
   0.26573317  0.76573318  0.24905366
   0.76573317  0.73426685  0.24905365
   0.23426683  0.26573316  0.24905365
   0.40781196  0.09218803  0.50303482
   0.59218804  0.90781196  0.50303483
   0.90781198  0.40781197  0.50303483
   0.09218807  0.59218807  0.50303483
   0.40784153  0.09215847  0.97615471
   0.59215846  0.90784154  0.97615470
   0.90784154  0.40784154  0.97615469
   0.09215844  0.59215844  0.97615469
  -0.00000000 -0.00000000  0.25346804
   0.50000000  0.50000000  0.25346804
   0.00000000 -0.00000000  0.75335860
   0.49999999  0.50000000  0.75335860
ortho-FASnI3                            
           1
     8.919776    0.000000    0.000000
     0.000000    8.919776    0.000000
     0.000000    0.000000   12.639686
   C    H    I    N    Sn
     4    20    12     8     4
Direct configuration=    13
   0.50000000 -0.00000000  0.45562544
   0.00000002  0.50000002  0.45562542
   0.49999999  0.00000001  0.02366021
   0.00000001  0.50000000  0.02366020
   0.50000000  0.00000000  0.36840315
   0.00000000  0.50000000  0.36840314
   0.40038337  0.09961662  0.58309360
   0.59961662  0.90038338  0.58309359
   0.90038338  0.40038338  0.58309360
   0.09961663  0.59961663  0.58309358
   0.34065849  0.15934150  0.45737219
   0.65934149  0.84065851  0.45737219
   0.84065849  0.34065849  0.45737218
   0.15934150  0.65934150  0.45737219
   0.50000000 -0.00000001  0.11080887
   0.00000000  0.50000000  0.11080886
   0.40033862  0.09966138  0.89607651
   0.59966138  0.90033862  0.89607650
   0.90033862  0.40033862  0.89607651
   0.09966138  0.59966138  0.89607652
   0.34068858  0.15931142  0.02162191
   0.65931144  0.84068856  0.02162192
   0.84068857  0.34068857  0.02162191
   0.15931143  0.65931143  0.02162191
  -0.00000000 -0.00000000  0.00852568
   0.49999999  0.49999999  0.00852566
   0.69852124  0.19852127  0.75026499
   0.30147874  0.80147872  0.75026498
   0.80147872  0.69852126  0.75026499
   0.19852129  0.30147875  0.75026499
   0.00000002 -0.00000001  0.50948875
   0.49999997  0.50000001  0.50948877
   0.73434720  0.23434718  0.24907239
   0.26565280  0.76565281  0.24907241
   0.76565281  0.73434722  0.24907239
   0.23434720  0.26565279  0.24907240
   0.40767514  0.09232485  0.50304593
   0.59232485  0.90767514  0.50304594
   0.90767516  0.40767515  0.50304593
   0.09232488  0.59232488  0.50304593
   0.40771286  0.09228715  0.97618718
   0.59228713  0.90771286  0.97618718
   0.90771287  0.40771287  0.97618717
   0.09228713  0.59228712  0.97618717
   0.00000000 -0.00000000  0.25335913
   0.49999999  0.50000000  0.25335913
   0.00000000 -0.00000000  0.75323940
   0.49999999  0.50000000  0.75323940
ortho-FASnI3                            
           1
     8.904246   -0.000000   -0.000000
    -0.000000    8.904246   -0.000000
    -0.000000   -0.000000   12.559532
   C    H    I    N    Sn
     4    20    12     8     4
Direct configuration=    14
   0.49999999 -0.00000001  0.45479278
   0.00000004  0.50000005  0.45479278
   0.50000000 -0.00000000  0.02460896
  -0.00000003  0.49999997  0.02460895
   0.49999999  0.00000000  0.36729125
   0.00000000  0.50000001  0.36729123
   0.39950417  0.10049583  0.58348183
   0.60049583  0.89950417  0.58348183
   0.89950417  0.39950417  0.58348184
   0.10049584  0.60049584  0.58348183
   0.33988317  0.16011682  0.45794283
   0.66011682  0.83988319  0.45794283
   0.83988317  0.33988317  0.45794282
   0.16011684  0.66011684  0.45794282
   0.50000000 -0.00000001  0.11209434
   0.00000000  0.50000000  0.11209432
   0.39947570  0.10052431  0.89577289
   0.60052431  0.89947569  0.89577287
   0.89947570  0.39947569  0.89577287
   0.10052431  0.60052430  0.89577288
   0.33987989  0.16012011  0.02100742
   0.66012011  0.83987989  0.02100742
   0.83987991  0.33987990  0.02100741
   0.16012008  0.66012008  0.02100740
   0.00000000  0.00000000  0.00869790
   0.49999998  0.49999998  0.00869786
   0.69843532  0.19843537  0.75018133
   0.30156464  0.80156462  0.75018131
   0.80156463  0.69843535  0.75018132
   0.19843540  0.30156466  0.75018132
   0.00000004 -0.00000003  0.50942367
   0.49999996  0.50000003  0.50942370
   0.73458843  0.23458841  0.24912875
   0.26541156  0.76541158  0.24912879
   0.76541159  0.73458846  0.24912876
   0.23458843  0.26541155  0.24912876
   0.40726444  0.09273554  0.50307934
   0.59273553  0.90726445  0.50307934
   0.90726447  0.40726446  0.50307932
   0.09273554  0.59273555  0.50307932
   0.40732662  0.09267340  0.97628482
   0.59267336  0.90732662  0.97628483
   0.90732665  0.40732663  0.97628483
   0.09267340  0.59267339  0.97628481
   0.00000000 -0.00000001  0.25303171
   0.49999999  0.50000000  0.25303171
   0.00000001 -0.00000001  0.75288106
   0.49999999  0.50000000  0.75288106
ortho-FASnI3                            
           1
     8.873185   -0.000000   -0.000000
    -0.000000    8.873185   -0.000000
    -0.000000   -0.000000   12.399223
   C    H    I    N    Sn
     4    20    12     8     4
Direct configuration=    15
   0.49999999 -0.00000003  0.45311682
   0.00000010  0.50000011  0.45311689
   0.50000004 -0.00000002  0.02651856
  -0.00000010  0.49999989  0.02651855
   0.49999999  0.00000001  0.36505326
   0.00000001  0.50000001  0.36505322
   0.39774269  0.10225730  0.58426325
   0.60225730  0.89774269  0.58426326
   0.89774270  0.39774269  0.58426328
   0.10225733  0.60225733  0.58426327
   0.33832982  0.16167017  0.45909140
   0.66167017  0.83832983  0.45909140
   0.83832983  0.33832983  0.45909139
   0.16167024  0.66167024  0.45909137
   0.50000000 -0.00000001  0.11468169
   0.00000001  0.50000000  0.11468166
   0.39774683  0.10225318  0.89516176