  48  48   0   0
  0.2060999E+02  0.8882000E-09  0.8882000E-09  0.1254000E-08  0.5000000E-15
   1.0000000000000000E-004
  CAR 
 tetra-FASnI3                            
      8.87445915    -20.11783237  301      2.59883605      1.00000000
    -20.118  0.0000E+00  0.0000E+00
    -20.021  0.0000E+00  0.0000E+00
    -19.925  0.0000E+00  0.0000E+00
    -19.828  0.0000E+00  0.0000E+00
    -19.731  0.0000E+00  0.0000E+00
    -19.635  0.0000E+00  0.0000E+00
    -19.538  0.0000E+00  0.0000E+00
    -19.441  0.0000E+00  0.0000E+00
    -19.345  0.0000E+00  0.0000E+00
    -19.248  0.0000E+00  0.0000E+00
    -19.151  0.0000E+00  0.0000E+00
    -19.055  0.1655E-13  0.1599E-14
    -18.958  0.2526E-06  0.2441E-07
    -18.861  0.3040E-02  0.2938E-03
    -18.765  0.6543E-01  0.6617E-02
    -18.668  0.1430E-01  0.7999E-02
    -18.572  0.9819E-05  0.8000E-02
    -18.475  0.6083E-11  0.8000E-02
    -18.378  0.0000E+00  0.8000E-02
    -18.282  0.0000E+00  0.8000E-02
    -18.185  0.0000E+00  0.8000E-02
    -18.088  0.0000E+00  0.8000E-02
    -17.992  0.0000E+00  0.8000E-02
    -17.895  0.0000E+00  0.8000E-02
    -17.798  0.0000E+00  0.8000E-02
    -17.702  0.0000E+00  0.8000E-02
    -17.605  0.0000E+00  0.8000E-02
    -17.509  0.0000E+00  0.8000E-02
    -17.412  0.0000E+00  0.8000E-02
    -17.315  0.0000E+00  0.8000E-02
    -17.219  0.0000E+00  0.8000E-02
    -17.122  0.0000E+00  0.8000E-02
    -17.025  0.0000E+00  0.8000E-02
    -16.929  0.0000E+00  0.8000E-02
    -16.832  0.8292E-10  0.8000E-02
    -16.735  0.4543E-04  0.8004E-02
    -16.639  0.2460E-01  0.1038E-01
    -16.542  0.5699E-01  0.1589E-01
    -16.445  0.1144E-02  0.1600E-01
    -16.349  0.3307E-07  0.1600E-01
    -16.252  0.7190E-15  0.1600E-01
    -16.156  0.0000E+00  0.1600E-01
    -16.059  0.0000E+00  0.1600E-01
    -15.962  0.0000E+00  0.1600E-01
    -15.866  0.0000E+00  0.1600E-01
    -15.769  0.0000E+00  0.1600E-01
    -15.672  0.0000E+00  0.1600E-01
    -15.576  0.0000E+00  0.1600E-01
    -15.479  0.0000E+00  0.1600E-01
    -15.382  0.0000E+00  0.1600E-01
    -15.286  0.0000E+00  0.1600E-01
    -15.189  0.0000E+00  0.1600E-01
    -15.093  0.0000E+00  0.1600E-01
    -14.996  0.0000E+00  0.1600E-01
    -14.899  0.0000E+00  0.1600E-01
    -14.803  0.0000E+00  0.1600E-01
    -14.706  0.0000E+00  0.1600E-01
    -14.609  0.0000E+00  0.1600E-01
    -14.513  0.0000E+00  0.1600E-01
    -14.416  0.0000E+00  0.1600E-01
    -14.319  0.0000E+00  0.1600E-01
    -14.223  0.0000E+00  0.1600E-01
    -14.126  0.0000E+00  0.1600E-01
    -14.029  0.0000E+00  0.1600E-01
    -13.933  0.0000E+00  0.1600E-01
    -13.836  0.0000E+00  0.1600E-01
    -13.740  0.0000E+00  0.1600E-01
    -13.643  0.0000E+00  0.1600E-01
    -13.546  0.0000E+00  0.1600E-01
    -13.450  0.0000E+00  0.1600E-01
    -13.353  0.0000E+00  0.1600E-01
    -13.256  0.0000E+00  0.1600E-01
    -13.160  0.0000E+00  0.1600E-01
    -13.063  0.0000E+00  0.1600E-01
    -12.966  0.0000E+00  0.1600E-01
    -12.870  0.0000E+00  0.1600E-01
    -12.773  0.0000E+00  0.1600E-01
    -12.676  0.0000E+00  0.1600E-01
    -12.580  0.0000E+00  0.1600E-01
    -12.483  0.0000E+00  0.1600E-01
    -12.387  0.0000E+00  0.1600E-01
    -12.290  0.0000E+00  0.1600E-01
    -12.193  0.0000E+00  0.1600E-01
    -12.097  0.0000E+00  0.1600E-01
    -12.000  0.0000E+00  0.1600E-01
    -11.903  0.0000E+00  0.1600E-01
    -11.807  0.0000E+00  0.1600E-01
    -11.710  0.0000E+00  0.1600E-01
    -11.613  0.0000E+00  0.1600E-01
    -11.517  0.0000E+00  0.1600E-01
    -11.420  0.0000E+00  0.1600E-01
    -11.324  0.0000E+00  0.1600E-01
    -11.227  0.0000E+00  0.1600E-01
    -11.130  0.0000E+00  0.1600E-01
    -11.034  0.4147E-15  0.1600E-01
    -10.937  0.7438E-08  0.1600E-01
    -10.840  0.1236E-03  0.1601E-01
    -10.744  0.9013E-02  0.1688E-01
    -10.647  0.4664E-01  0.2139E-01
    -10.550  0.2739E-01  0.2404E-01
    -10.454  0.1977E-01  0.2595E-01
    -10.357  0.4135E-01  0.2994E-01
    -10.260  0.3264E-01  0.3310E-01
    -10.164  0.4188E-01  0.3715E-01
    -10.067  0.3501E-01  0.4053E-01
     -9.971  0.5295E-01  0.4565E-01
     -9.874  0.2351E-01  0.4792E-01
     -9.777  0.8494E-03  0.4800E-01
     -9.681  0.3702E-06  0.4800E-01
     -9.584  0.3305E-12  0.4800E-01
     -9.487  0.0000E+00  0.4800E-01
     -9.391  0.0000E+00  0.4800E-01
     -9.294  0.0000E+00  0.4800E-01
     -9.197  0.0000E+00  0.4800E-01
     -9.101  0.0000E+00  0.4800E-01
     -9.004  0.0000E+00  0.4800E-01
     -8.907  0.5320E-11  0.4800E-01
     -8.811  0.6443E-05  0.4800E-01
     -8.714  0.1044E-01  0.4901E-01
     -8.618  0.6629E-01  0.5542E-01
     -8.521  0.6045E-02  0.5600E-01
     -8.424  0.2717E-05  0.5600E-01
     -8.328  0.9791E-11  0.5600E-01
     -8.231  0.1031E-04  0.5600E-01
     -8.134  0.1451E-01  0.5740E-01
     -8.038  0.6527E-01  0.6371E-01
     -7.941  0.2992E-02  0.6400E-01
     -7.844  0.2473E-06  0.6400E-01
     -7.748  0.1634E-13  0.6400E-01
     -7.651  0.0000E+00  0.6400E-01
     -7.555  0.0000E+00  0.6400E-01
     -7.458  0.0000E+00  0.6400E-01
     -7.361  0.0000E+00  0.6400E-01
     -7.265  0.0000E+00  0.6400E-01
     -7.168  0.0000E+00  0.6400E-01
     -7.071  0.0000E+00  0.6400E-01
     -6.975  0.0000E+00  0.6400E-01
     -6.878  0.0000E+00  0.6400E-01
     -6.781  0.0000E+00  0.6400E-01
     -6.685  0.0000E+00  0.6400E-01
     -6.588  0.1351E-12  0.6400E-01
     -6.491  0.9098E-06  0.6400E-01
     -6.395  0.5296E-02  0.6451E-01
     -6.298  0.6794E-01  0.7108E-01
     -6.202  0.9536E-02  0.7200E-01
     -6.105  0.3661E-05  0.7200E-01
     -6.008  0.3425E-08  0.7200E-01
     -5.912  0.4181E-04  0.7200E-01
     -5.815  0.9080E-03  0.7209E-01
     -5.718  0.2023E-03  0.7211E-01
     -5.622  0.1430E-02  0.7225E-01
     -5.525  0.4957E-02  0.7273E-01
     -5.428  0.3508E-02  0.7307E-01
     -5.332  0.4271E-02  0.7348E-01
     -5.235  0.6571E-02  0.7412E-01
     -5.138  0.9497E-02  0.7503E-01
     -5.042  0.7370E-02  0.7575E-01
     -4.945  0.7335E-02  0.7645E-01
     -4.849  0.5096E-01  0.8138E-01
     -4.752  0.4346E-01  0.8558E-01
     -4.655  0.1108E-01  0.8665E-01
     -4.559  0.1308E-02  0.8678E-01
     -4.462  0.9104E-03  0.8686E-01
     -4.365  0.7793E-02  0.8762E-01
     -4.269  0.7035E-01  0.9442E-01
     -4.172  0.1522E-01  0.9589E-01
     -4.075  0.1410E-04  0.9589E-01
     -3.979  0.6072E-08  0.9589E-01
     -3.882  0.5428E-04  0.9589E-01
     -3.786  0.9295E-03  0.9598E-01
     -3.689  0.1659E-03  0.9600E-01
     -3.592  0.8509E-07  0.9600E-01
     -3.496  0.3837E-13  0.9600E-01
     -3.399  0.0000E+00  0.9600E-01
     -3.302  0.0000E+00  0.9600E-01
     -3.206  0.0000E+00  0.9600E-01
     -3.109  0.0000E+00  0.9600E-01
     -3.012  0.0000E+00  0.9600E-01
     -2.916  0.0000E+00  0.9600E-01
     -2.819  0.0000E+00  0.9600E-01
     -2.722  0.0000E+00  0.9600E-01
     -2.626  0.0000E+00  0.9600E-01
     -2.529  0.0000E+00  0.9600E-01
     -2.433  0.0000E+00  0.9600E-01
     -2.336  0.0000E+00  0.9600E-01
     -2.239  0.2362E-11  0.9600E-01
     -2.143  0.1790E-05  0.9600E-01
     -2.046  0.1629E-02  0.9616E-01
     -1.949  0.1487E-01  0.9760E-01
     -1.853  0.2052E-01  0.9958E-01
     -1.756  0.1030E-01  0.1006E+00
     -1.659  0.8851E-02  0.1014E+00
     -1.563  0.2381E-01  0.1037E+00
     -1.466  0.1172E-01  0.1049E+00
     -1.369  0.8630E-02  0.1057E+00
     -1.273  0.8705E-02  0.1065E+00
     -1.176  0.3117E-01  0.1096E+00
     -1.080  0.3986E-01  0.1134E+00
     -0.983  0.2487E-01  0.1158E+00
     -0.886  0.1355E-01  0.1171E+00
     -0.790  0.2009E-01  0.1191E+00
     -0.693  0.2541E-01  0.1215E+00
     -0.596  0.3035E-01  0.1244E+00
     -0.500  0.2385E-01  0.1268E+00
     -0.403  0.2401E-01  0.1291E+00
     -0.306  0.1141E-01  0.1302E+00
     -0.210  0.3107E-01  0.1332E+00
     -0.113  0.1666E-01  0.1348E+00
     -0.017  0.5176E-01  0.1398E+00
      0.080  0.4267E-01  0.1439E+00
      0.177  0.3503E-01  0.1473E+00
      0.273  0.4271E-01  0.1514E+00
      0.370  0.2095E-01  0.1535E+00
      0.467  0.2235E-01  0.1556E+00
      0.563  0.5989E-01  0.1614E+00
      0.660  0.6068E-01  0.1673E+00
      0.757  0.2631E-01  0.1698E+00
      0.853  0.1537E-01  0.1713E+00
      0.950  0.1497E-01  0.1727E+00
      1.047  0.6586E-02  0.1734E+00
      1.143  0.4713E-02  0.1738E+00
      1.240  0.3835E-02  0.1742E+00
      1.336  0.1502E-02  0.1743E+00
      1.433  0.3246E-02  0.1747E+00
      1.530  0.2312E-02  0.1749E+00
      1.626  0.3598E-02  0.1752E+00
      1.723  0.3384E-02  0.1756E+00
      1.820  0.3351E-02  0.1759E+00
      1.916  0.6252E-04  0.1759E+00
      2.013  0.1773E-08  0.1759E+00
      2.110  0.9787E-14  0.1759E+00
      2.206  0.3693E-07  0.1759E+00
      2.303  0.1187E-03  0.1759E+00
      2.400  0.9497E-03  0.1760E+00
      2.496  0.8133E-04  0.1760E+00
      2.593  0.1510E-07  0.1760E+00
      2.689  0.7889E-07  0.1760E+00
      2.786  0.2438E-03  0.1760E+00
      2.883  0.1898E-02  0.1762E+00
      2.979  0.2819E-03  0.1762E+00
      3.076  0.3124E-02  0.1765E+00
      3.173  0.6931E-02  0.1772E+00
      3.269  0.5540E-02  0.1777E+00
      3.366  0.1228E-01  0.1789E+00
      3.463  0.4395E-02  0.1794E+00
      3.559  0.8501E-02  0.1802E+00
      3.656  0.3978E-02  0.1806E+00
      3.752  0.1082E-02  0.1807E+00
      3.849  0.3585E-02  0.1810E+00
      3.946  0.2078E-02  0.1812E+00
      4.042  0.7790E-02  0.1820E+00
      4.139  0.8938E-02  0.1828E+00
      4.236  0.1560E-01  0.1843E+00
      4.332  0.1004E-01  0.1853E+00
      4.429  0.5857E-02  0.1859E+00
      4.526  0.2773E-01  0.1886E+00
      4.622  0.4834E-01  0.1932E+00
      4.719  0.8009E-02  0.1940E+00
      4.816  0.3902E-04  0.1940E+00
      4.912  0.2986E-07  0.1940E+00
      5.009  0.1613E-03  0.1940E+00
      5.105  0.3259E-02  0.1943E+00
      5.202  0.1602E-01  0.1959E+00
      5.299  0.1275E-01  0.1971E+00
      5.395  0.1239E-01  0.1983E+00
      5.492  0.1509E-01  0.1998E+00
      5.589  0.2694E-01  0.2024E+00
      5.685  0.9391E-02  0.2033E+00
      5.782  0.5338E-02  0.2038E+00
      5.879  0.1393E-01  0.2051E+00
      5.975  0.1333E-01  0.2064E+00
      6.072  0.8185E-02  0.2072E+00
      6.169  0.8022E-02  0.2080E+00
      6.265  0.1747E-01  0.2097E+00
      6.362  0.1952E-01  0.2116E+00
      6.458  0.2689E-01  0.2142E+00
      6.555  0.1600E-01  0.2157E+00
      6.652  0.1736E-01  0.2174E+00
      6.748  0.1985E-01  0.2193E+00
      6.845  0.1720E-01  0.2210E+00
      6.942  0.3408E-01  0.2243E+00
      7.038  0.3330E-01  0.2275E+00
      7.135  0.1706E-01  0.2291E+00
      7.232  0.2532E-01  0.2316E+00
      7.328  0.3247E-01  0.2347E+00
      7.425  0.3494E-01  0.2381E+00
      7.521  0.1301E-01  0.2394E+00
      7.618  0.6484E-02  0.2400E+00
      7.715  0.2067E-03  0.2400E+00
      7.811  0.1617E-07  0.2400E+00
      7.908  0.1113E-14  0.2400E+00
      8.005  0.0000E+00  0.2400E+00
      8.101  0.0000E+00  0.2400E+00
      8.198  0.0000E+00  0.2400E+00
      8.295  0.0000E+00  0.2400E+00
      8.391  0.0000E+00  0.2400E+00
      8.488  0.0000E+00  0.2400E+00
      8.585  0.0000E+00  0.2400E+00
      8.681  0.0000E+00  0.2400E+00
      8.778  0.0000E+00  0.2400E+00
      8.874  0.0000E+00  0.2400E+00
