       N       E                     dE             d eps       ncg     rms          ort
DAV:   1     0.140906443122E+04    0.14091E+04   -0.10811E+05  1200   0.210E+03
DAV:   2     0.168014182618E+02   -0.13923E+04   -0.13267E+04  1200   0.279E+02
DAV:   3    -0.177895197422E+03   -0.19470E+03   -0.19274E+03  1200   0.126E+02
DAV:   4    -0.184015549743E+03   -0.61204E+01   -0.60743E+01  1200   0.235E+01
DAV:   5    -0.184189614881E+03   -0.17407E+00   -0.17388E+00  1200   0.398E+00
SDA:   6    -0.155009618847E+03    0.29180E+02   -0.17388E+00  1200   0.861E+02 0.000E+00
CGA:   7    -0.168910856552E+03   -0.13901E+02   -0.13851E+02  1200   0.534E+01 0.411E-01
CGA:   8    -0.170533792236E+03   -0.16229E+01   -0.16192E+01  1200   0.156E+01 0.177E-01
CGA:   9    -0.171044535793E+03   -0.51074E+00   -0.51182E+00  1200   0.480E+00-0.809E-02
CGA:  10    -0.171201466196E+03   -0.15693E+00   -0.15725E+00  1200   0.125E+00-0.230E-02
CGA:  11    -0.171249097833E+03   -0.47632E-01   -0.47756E-01  1200   0.319E-01-0.762E-03
CGA:  12    -0.171259298886E+03   -0.10201E-01   -0.10205E-01  1200   0.647E-02-0.280E-04
CGA:  13    -0.171261717114E+03   -0.24182E-02   -0.24150E-02  1200   0.150E-02 0.234E-04
CGA:  14    -0.171262271412E+03   -0.55430E-03   -0.55271E-03  1200   0.319E-03 0.124E-04
CGA:  15    -0.171262402077E+03   -0.13066E-03   -0.12980E-03  1200   0.732E-04 0.534E-05
CGA:  16    -0.171262432947E+03   -0.30870E-04   -0.30719E-04  1200   0.173E-04 0.929E-06
CGA:  17    -0.171262440311E+03   -0.73635E-05   -0.72642E-05  1200   0.393E-05 0.635E-06
CGA:  18    -0.171262442090E+03   -0.17797E-05   -0.17348E-05  1200   0.112E-05 0.283E-06
   1 F= -.17126244E+03 E0= -.17126244E+03  d E =-.171262E+03
       N       E                     dE             d eps       ncg     rms          ort
SDA:   1    -0.163867978113E+03    0.73945E+01    0.00000E+00  1200   0.168E+02 0.000E+00
CGA:   2    -0.169149318809E+03   -0.52813E+01   -0.52834E+01  1200   0.468E+01-0.543E-01
CGA:   3    -0.170433753485E+03   -0.12844E+01   -0.12848E+01  1200   0.837E+00 0.143E-01
CGA:   4    -0.170656183779E+03   -0.22243E+00   -0.22240E+00  1200   0.135E+00-0.636E-03
CGA:   5    -0.170697367630E+03   -0.41184E-01   -0.41181E-01  1200   0.273E-01 0.881E-04
CGA:   6    -0.170706994631E+03   -0.96270E-02   -0.96225E-02  1200   0.742E-02 0.637E-04
CGA:   7    -0.170710008142E+03   -0.30135E-02   -0.30111E-02  1200   0.240E-02 0.185E-04
CGA:   8    -0.170710887997E+03   -0.87986E-03   -0.87966E-03  1200   0.610E-03 0.230E-05
CGA:   9    -0.170711101246E+03   -0.21325E-03   -0.21332E-03  1200   0.122E-03-0.135E-05
CGA:  10    -0.170711144189E+03   -0.42943E-04   -0.42937E-04  1200   0.236E-04 0.123E-06
CGA:  11    -0.170711153234E+03   -0.90444E-05   -0.90637E-05  1200   0.568E-05-0.242E-06
CGA:  12    -0.170711155503E+03   -0.22691E-05   -0.23069E-05  1200   0.177E-05-0.368E-06
   2 F= -.17071116E+03 E0= -.17071116E+03  d E =0.551287E+00
       N       E                     dE             d eps       ncg     rms          ort
SDA:   1    -0.166883592823E+03    0.38276E+01    0.00000E+00  1200   0.108E+02 0.000E+00
CGA:   2    -0.170333501538E+03   -0.34499E+01   -0.34499E+01  1200   0.283E+01 0.255E-01
CGA:   3    -0.171134893444E+03   -0.80139E+00   -0.80115E+00  1200   0.515E+00-0.209E-02
CGA:   4    -0.171266670426E+03   -0.13178E+00   -0.13183E+00  1200   0.818E-01 0.275E-03
CGA:   5    -0.171290821067E+03   -0.24151E-01   -0.24150E-01  1200   0.158E-01 0.142E-07
CGA:   6    -0.171296155332E+03   -0.53343E-02   -0.53342E-02  1200   0.410E-02 0.288E-05
CGA:   7    -0.171297768911E+03   -0.16136E-02   -0.16132E-02  1200   0.134E-02 0.471E-05
CGA:   8    -0.171298265740E+03   -0.49683E-03   -0.49670E-03  1200   0.351E-03 0.248E-05
CGA:   9    -0.171298390608E+03   -0.12487E-03   -0.12483E-03  1200   0.753E-04 0.125E-05
CGA:  10    -0.171298416944E+03   -0.26336E-04   -0.26335E-04  1200   0.149E-04 0.422E-07
CGA:  11    -0.171298422479E+03   -0.55346E-05   -0.55208E-05  1200   0.319E-05 0.291E-06
CGA:  12    -0.171298423746E+03   -0.12670E-05   -0.12604E-05  1200   0.840E-06 0.109E-06
   3 F= -.17129842E+03 E0= -.17129842E+03  d E =-.359817E-01
       N       E                     dE             d eps       ncg     rms          ort
SDA:   1    -0.171014980791E+03    0.28344E+00    0.00000E+00  1200   0.764E+00 0.000E+00
CGA:   2    -0.171233914303E+03   -0.21893E+00   -0.21893E+00  1200   0.209E+00-0.976E-04
CGA:   3    -0.171300488804E+03   -0.66575E-01   -0.66574E-01  1200   0.299E-01-0.659E-04
CGA:   4    -0.171308604691E+03   -0.81159E-02   -0.81145E-02  1200   0.690E-02-0.287E-04
CGA:   5    -0.171310639943E+03   -0.20353E-02   -0.20349E-02  1200   0.158E-02-0.123E-04
CGA:   6    -0.171311269484E+03   -0.62954E-03   -0.62989E-03  1200   0.459E-03-0.457E-05
CGA:   7    -0.171311452033E+03   -0.18255E-03   -0.18276E-03  1200   0.125E-03-0.295E-05
CGA:   8    -0.171311496872E+03   -0.44838E-04   -0.44863E-04  1200   0.259E-04-0.801E-06
CGA:   9    -0.171311506218E+03   -0.93466E-05   -0.93384E-05  1200   0.565E-05 0.277E-06
CGA:  10    -0.171311508297E+03   -0.20784E-05   -0.20748E-05  1200   0.154E-05 0.127E-06
   4 F= -.17131151E+03 E0= -.17131151E+03  d E =-.130846E-01
       N       E                     dE             d eps       ncg     rms          ort
SDA:   1    -0.171307251942E+03    0.42543E-02    0.00000E+00  1200   0.117E-01 0.000E+00
CGA:   2    -0.171310595126E+03   -0.33432E-02   -0.33434E-02  1200   0.318E-02 0.437E-05
CGA:   3    -0.171311610718E+03   -0.10156E-02   -0.10157E-02  1200   0.456E-03 0.564E-05
CGA:   4    -0.171311733409E+03   -0.12269E-03   -0.12291E-03  1200   0.103E-03 0.334E-05
CGA:   5    -0.171311763707E+03   -0.30297E-04   -0.30357E-04  1200   0.232E-04 0.153E-05
CGA:   6    -0.171311772935E+03   -0.92290E-05   -0.91872E-05  1200   0.652E-05 0.687E-06
CGA:   7    -0.171311775513E+03   -0.25779E-05   -0.25591E-05  1200   0.171E-05 0.387E-06
CGA:   8    -0.171311776152E+03   -0.63899E-06   -0.63726E-06  1200   0.369E-06 0.110E-06
   5 F= -.17131178E+03 E0= -.17131178E+03  d E =-.133524E-01
       N       E                     dE             d eps       ncg     rms          ort
SDA:   1    -0.171262415282E+03    0.49360E-01    0.00000E+00  1200   0.163E+00 0.000E+00
CGA:   2    -0.171307902350E+03   -0.45487E-01   -0.45485E-01  1200   0.371E-01-0.100E-04
CGA:   3    -0.171319581820E+03   -0.11679E-01   -0.11679E-01  1200   0.552E-02-0.158E-04
CGA:   4    -0.171321157310E+03   -0.15755E-02   -0.15751E-02  1200   0.121E-02-0.759E-05
CGA:   5    -0.171321504096E+03   -0.34679E-03   -0.34661E-03  1200   0.291E-03-0.400E-05
CGA:   6    -0.171321613830E+03   -0.10973E-03   -0.10981E-03  1200   0.862E-04-0.156E-05
CGA:   7    -0.171321647801E+03   -0.33971E-04   -0.34054E-04  1200   0.250E-04-0.129E-05
CGA:   8    -0.171321656524E+03   -0.87237E-05   -0.87286E-05  1200   0.579E-05-0.259E-06
CGA:   9    -0.171321658532E+03   -0.20071E-05   -0.20071E-05  1200   0.130E-05 0.586E-08
   6 F= -.17132166E+03 E0= -.17132166E+03  d E =-.988238E-02
       N       E                     dE             d eps       ncg     rms          ort
SDA:   1    -0.171203706739E+03    0.11795E+00    0.00000E+00  1200   0.339E+00 0.000E+00
CGA:   2    -0.171298347202E+03   -0.94640E-01   -0.94635E-01  1200   0.770E-01-0.316E-04
CGA:   3    -0.171322597654E+03   -0.24250E-01   -0.24250E-01  1200   0.115E-01-0.238E-04
CGA:   4    -0.171325873124E+03   -0.32755E-02   -0.32748E-02  1200   0.252E-02-0.114E-04
CGA:   5    -0.171326596196E+03   -0.72307E-03   -0.72282E-03  1200   0.605E-03-0.565E-05
CGA:   6    -0.171326825146E+03   -0.22895E-03   -0.22905E-03  1200   0.180E-03-0.208E-05
CGA:   7    -0.171326895894E+03   -0.70748E-04   -0.70862E-04  1200   0.519E-04-0.182E-05
CGA:   8    -0.171326914087E+03   -0.18193E-04   -0.18200E-04  1200   0.120E-04-0.385E-06
CGA:   9    -0.171326918287E+03   -0.41999E-05   -0.42001E-05  1200   0.271E-05-0.396E-08
   7 F= -.17132692E+03 E0= -.17132692E+03  d E =-.151421E-01
       N       E                     dE             d eps       ncg     rms          ort
SDA:   1    -0.171295485011E+03    0.31429E-01    0.00000E+00  1200   0.118E+00 0.000E+00
CGA:   2    -0.171326147770E+03   -0.30663E-01   -0.30662E-01  1200   0.239E-01 0.476E-05
CGA:   3    -0.171333808646E+03   -0.76609E-02   -0.76608E-02  1200   0.378E-02-0.354E-05
CGA:   4    -0.171334852181E+03   -0.10435E-02   -0.10434E-02  1200   0.862E-03-0.189E-05
CGA:   5    -0.171335103868E+03   -0.25169E-03   -0.25162E-03  1200   0.190E-03-0.181E-05
CGA:   6    -0.171335179325E+03   -0.75456E-04   -0.75462E-04  1200   0.555E-04-0.878E-07
CGA:   7    -0.171335201809E+03   -0.22484E-04   -0.22525E-04  1200   0.163E-04-0.550E-06
CGA:   8    -0.171335207465E+03   -0.56562E-05   -0.56575E-05  1200   0.361E-05-0.903E-07
CGA:   9    -0.171335208777E+03   -0.13124E-05   -0.13137E-05  1200   0.778E-06-0.414E-07
   8 F= -.17133521E+03 E0= -.17133521E+03  d E =-.829049E-02
       N       E                     dE             d eps       ncg     rms          ort
SDA:   1    -0.170995063948E+03    0.34014E+00    0.00000E+00  1200   0.106E+01 0.000E+00
CGA:   2    -0.171271051179E+03   -0.27599E+00   -0.27595E+00  1200   0.215E+00-0.764E-04
CGA:   3    -0.171339868726E+03   -0.68818E-01   -0.68818E-01  1200   0.342E-01 0.916E-05
CGA:   4    -0.171349291889E+03   -0.94232E-02   -0.94221E-02  1200   0.777E-02-0.922E-05
CGA:   5    -0.171351567095E+03   -0.22752E-02   -0.22751E-02  1200   0.171E-02-0.437E-05
CGA:   6    -0.171352245271E+03   -0.67818E-03   -0.67813E-03  1200   0.497E-03 0.682E-06
CGA:   7    -0.171352445680E+03   -0.20041E-03   -0.20050E-03  1200   0.145E-03-0.135E-05
CGA:   8    -0.171352496314E+03   -0.50634E-04   -0.50638E-04  1200   0.322E-04-0.287E-06
CGA:   9    -0.171352508046E+03   -0.11732E-04   -0.11737E-04  1200   0.688E-05-0.187E-06
CGA:  10    -0.171352510680E+03   -0.26336E-05   -0.26365E-05  1200   0.167E-05-0.617E-07
   9 F= -.17135251E+03 E0= -.17135251E+03  d E =-.255924E-01
       N       E                     dE             d eps       ncg     rms          ort
SDA:   1    -0.169925259464E+03    0.14272E+01    0.00000E+00  1200   0.423E+01 0.000E+00
CGA:   2    -0.171028603158E+03   -0.11033E+01   -0.11031E+01  1200   0.859E+00-0.656E-03
CGA:   3    -0.171302768819E+03   -0.27417E+00   -0.27418E+00  1200   0.138E+00 0.190E-03
CGA:   4    -0.171340656869E+03   -0.37888E-01   -0.37880E-01  1200   0.312E-01-0.389E-04
CGA:   5    -0.171349838572E+03   -0.91817E-02   -0.91818E-02  1200   0.684E-02-0.480E-05
CGA:   6    -0.171352558155E+03   -0.27196E-02   -0.27193E-02  1200   0.199E-02 0.432E-05
CGA:   7    -0.171353359885E+03   -0.80173E-03   -0.80185E-03  1200   0.580E-03-0.193E-05
CGA:   8    -0.171353562868E+03   -0.20298E-03   -0.20299E-03  1200   0.129E-03-0.649E-06
CGA:   9    -0.171353609978E+03   -0.47109E-04   -0.47123E-04  1200   0.274E-04-0.575E-06
CGA:  10    -0.171353620530E+03   -0.10553E-04   -0.10564E-04  1200   0.672E-05-0.266E-06
CGA:  11    -0.171353623375E+03   -0.28449E-05   -0.28636E-05  1200   0.177E-05-0.219E-06
  10 F= -.17135362E+03 E0= -.17135362E+03  d E =-.267051E-01
       N       E                     dE             d eps       ncg     rms          ort
SDA:   1    -0.171036563689E+03    0.31706E+00    0.00000E+00  1200   0.955E+00 0.000E+00
CGA:   2    -0.171285363738E+03   -0.24880E+00   -0.24885E+00  1200   0.193E+00 0.894E-04
CGA:   3    -0.171347366091E+03   -0.62002E-01   -0.62002E-01  1200   0.303E-01 0.290E-05
CGA:   4    -0.171355763561E+03   -0.83975E-02   -0.83987E-02  1200   0.688E-02 0.964E-05
CGA:   5    -0.171357768080E+03   -0.20045E-02   -0.20048E-02  1200   0.152E-02 0.623E-05
CGA:   6    -0.171358373291E+03   -0.60521E-03   -0.60514E-03  1200   0.442E-03 0.119E-05
CGA:   7    -0.171358551270E+03   -0.17798E-03   -0.17787E-03  1200   0.127E-03 0.181E-05
CGA:   8    -0.171358596099E+03   -0.44829E-04   -0.44828E-04  1200   0.282E-04 0.216E-06
CGA:   9    -0.171358606436E+03   -0.10338E-04   -0.10339E-04  1200   0.606E-05-0.729E-07
CGA:  10    -0.171358608771E+03   -0.23350E-05   -0.23380E-05  1200   0.148E-05-0.743E-07
  11 F= -.17135861E+03 E0= -.17135861E+03  d E =-.316905E-01
       N       E                     dE             d eps       ncg     rms          ort
SDA:   1    -0.171191444653E+03    0.16716E+00    0.00000E+00  1200   0.528E+00 0.000E+00
CGA:   2    -0.171326814868E+03   -0.13537E+00   -0.13536E+00  1200   0.109E+00-0.799E-05
CGA:   3    -0.171362201724E+03   -0.35387E-01   -0.35387E-01  1200   0.190E-01-0.126E-05
CGA:   4    -0.171367276127E+03   -0.50744E-02   -0.50733E-02  1200   0.437E-02-0.845E-05
CGA:   5    -0.171368582801E+03   -0.13067E-02   -0.13064E-02  1200   0.938E-03-0.695E-05
CGA:   6    -0.171368957433E+03   -0.37463E-03   -0.37462E-03  1200   0.275E-03 0.196E-06
CGA:   7    -0.171369064436E+03   -0.10700E-03   -0.10702E-03  1200   0.846E-04-0.321E-06
CGA:   8    -0.171369093531E+03   -0.29095E-04   -0.29095E-04  1200   0.190E-04-0.842E-07
CGA:   9    -0.171369100464E+03   -0.69335E-05   -0.69371E-05  1200   0.404E-05-0.171E-06
CGA:  10    -0.171369102007E+03   -0.15434E-05   -0.15434E-05  1200   0.950E-06 0.288E-08
  12 F= -.17136910E+03 E0= -.17136910E+03  d E =-.104932E-01
       N       E                     dE             d eps       ncg     rms          ort
SDA:   1    -0.171315554864E+03    0.53546E-01    0.00000E+00  1200   0.164E+00 0.000E+00
CGA:   2    -0.171357538999E+03   -0.41984E-01   -0.41983E-01  1200   0.336E-01 0.469E-05
CGA:   3    -0.171368515144E+03   -0.10976E-01   -0.10976E-01  1200   0.588E-02-0.304E-05
CGA:   4    -0.171370084613E+03   -0.15695E-02   -0.15691E-02  1200   0.135E-02-0.408E-05
CGA:   5    -0.171370488451E+03   -0.40384E-03   -0.40367E-03  1200   0.291E-03-0.402E-05
CGA:   6    -0.171370604212E+03   -0.11576E-03   -0.11576E-03  1200   0.851E-04-0.849E-08
CGA:   7    -0.171370637464E+03   -0.33252E-04   -0.33263E-04  1200   0.262E-04-0.216E-06
CGA:   8    -0.171370646479E+03   -0.90155E-05   -0.90156E-05  1200   0.589E-05-0.573E-07
CGA:   9    -0.171370648640E+03   -0.21605E-05   -0.21625E-05  1200   0.127E-05-0.861E-07
  13 F= -.17137065E+03 E0= -.17137065E+03  d E =-.120399E-01
       N       E                     dE             d eps       ncg     rms          ort
SDA:   1    -0.171249090245E+03    0.12156E+00    0.00000E+00  1200   0.413E+00 0.000E+00
CGA:   2    -0.171349684577E+03   -0.10059E+00   -0.10058E+00  1200   0.765E-01 0.276E-05
CGA:   3    -0.171374246281E+03   -0.24562E-01   -0.24562E-01  1200   0.159E-01-0.985E-05
CGA:   4    -0.171378388903E+03   -0.41426E-02   -0.41413E-02  1200   0.354E-02-0.125E-04
CGA:   5    -0.171379507160E+03   -0.11183E-02   -0.11180E-02  1200   0.744E-03-0.115E-04
CGA:   6    -0.171379808499E+03   -0.30134E-03   -0.30146E-03  1200   0.225E-03-0.179E-05
CGA:   7    -0.171379893063E+03   -0.84564E-04   -0.84610E-04  1200   0.711E-04-0.124E-05
CGA:   8    -0.171379917249E+03   -0.24185E-04   -0.24185E-04  1200   0.151E-04-0.232E-06
CGA:   9    -0.171379922880E+03   -0.56315E-05   -0.56336E-05  1200   0.320E-05-0.607E-07
CGA:  10    -0.171379924116E+03   -0.12354E-05   -0.12392E-05  1200   0.815E-06-0.811E-07
  14 F= -.17137992E+03 E0= -.17137992E+03  d E =-.927548E-02
       N       E                     dE             d eps       ncg     rms          ort
SDA:   1    -0.171323545443E+03    0.56377E-01    0.00000E+00  1200   0.184E+00 0.000E+00
CGA:   2    -0.171368252278E+03   -0.44707E-01   -0.44703E-01  1200   0.340E-01 0.598E-05
CGA:   3    -0.171379171699E+03   -0.10919E-01   -0.10919E-01  1200   0.706E-02-0.101E-04
CGA:   4    -0.171381010611E+03   -0.18389E-02   -0.18382E-02  1200   0.157E-02-0.803E-05
CGA:   5    -0.171381507163E+03   -0.49655E-03   -0.49638E-03  1200   0.331E-03-0.785E-05
CGA:   6    -0.171381640888E+03   -0.13373E-03   -0.13381E-03  1200   0.996E-04-0.125E-05
CGA:   7    -0.171381678475E+03   -0.37587E-04   -0.37619E-04  1200   0.316E-04-0.844E-06
CGA:   8    -0.171381689172E+03   -0.10697E-04   -0.10697E-04  1200   0.670E-05-0.159E-06
CGA:   9    -0.171381691667E+03   -0.24947E-05   -0.24960E-05  1200   0.142E-05-0.352E-07
  15 F= -.17138169E+03 E0= -.17138169E+03  d E =-.110430E-01
       N       E                     dE             d eps       ncg     rms          ort
SDA:   1    -0.171308526538E+03    0.73163E-01    0.00000E+00  1200   0.279E+00 0.000E+00
CGA:   2    -0.171374727285E+03   -0.66201E-01   -0.66195E-01  1200   0.414E-01 0.486E-05
CGA:   3    -0.171388413560E+03   -0.13686E-01   -0.13686E-01  1200   0.780E-02-0.296E-04
CGA:   4    -0.171390630697E+03   -0.22171E-02   -0.22161E-02  1200   0.204E-02-0.171E-04
CGA:   5    -0.171391251456E+03   -0.62076E-03   -0.62035E-03  1200   0.500E-03-0.124E-04
CGA:   6    -0.171391454407E+03   -0.20295E-03   -0.20324E-03  1200   0.139E-03-0.400E-05
CGA:   7    -0.171391509165E+03   -0.54758E-04   -0.54892E-04  1200   0.397E-04-0.232E-05
CGA:   8    -0.171391522179E+03   -0.13015E-04   -0.13014E-04  1200   0.888E-05-0.121E-06
CGA:   9    -0.171391525321E+03   -0.31415E-05   -0.31389E-05  1200   0.178E-05 0.228E-06
  16 F= -.17139153E+03 E0= -.17139153E+03  d E =-.983365E-02
       N       E                     dE             d eps       ncg     rms          ort
SDA:   1    -0.170662235949E+03    0.72929E+00    0.00000E+00  1200   0.251E+01 0.000E+00
CGA:   2    -0.171257396757E+03   -0.59516E+00   -0.59500E+00  1200   0.372E+00-0.683E-04
CGA:   3    -0.171380339505E+03   -0.12294E+00   -0.12294E+00  1200   0.704E-01-0.490E-04
CGA:   4    -0.171400321286E+03   -0.19982E-01   -0.19977E-01  1200   0.183E-01-0.625E-04
CGA:   5    -0.171405919256E+03   -0.55980E-02   -0.55971E-02  1200   0.449E-02-0.332E-04
CGA:   6    -0.171407743912E+03   -0.18247E-02   -0.18254E-02  1200   0.124E-02-0.998E-05
CGA:   7    -0.171408231011E+03   -0.48710E-03   -0.48747E-03  1200   0.352E-03-0.674E-05
CGA:   8    -0.171408348319E+03   -0.11731E-03   -0.11730E-03  1200   0.797E-04-0.651E-06
CGA:   9    -0.171408377320E+03   -0.29001E-04   -0.28991E-04  1200   0.164E-04 0.406E-06
CGA:  10    -0.171408383751E+03   -0.64308E-05   -0.64286E-05  1200   0.409E-05 0.469E-07
CGA:  11    -0.171408385471E+03   -0.17205E-05   -0.17268E-05  1200   0.107E-05-0.798E-07
  17 F= -.17140839E+03 E0= -.17140839E+03  d E =-.266938E-01
       N       E                     dE             d eps       ncg     rms          ort
SDA:   1    -0.171302779398E+03    0.10560E+00    0.00000E+00  1200   0.360E+00 0.000E+00
CGA:   2    -0.171388168850E+03   -0.85389E-01   -0.85380E-01  1200   0.533E-01 0.731E-05
CGA:   3    -0.171405793377E+03   -0.17625E-01   -0.17624E-01  1200   0.100E-01-0.323E-04
CGA:   4    -0.171408648764E+03   -0.28554E-02   -0.28541E-02  1200   0.261E-02-0.198E-04
CGA:   5    -0.171409445283E+03   -0.79652E-03   -0.79601E-03  1200   0.643E-03-0.139E-04
CGA:   6    -0.171409705814E+03   -0.26053E-03   -0.26082E-03  1200   0.177E-03-0.425E-05
CGA:   7    -0.171409775803E+03   -0.69990E-04   -0.70127E-04  1200   0.506E-04-0.254E-05
CGA:   8    -0.171409792465E+03   -0.16662E-04   -0.16660E-04  1200   0.113E-04-0.166E-06
CGA:   9    -0.171409796501E+03   -0.40357E-05   -0.40333E-05  1200   0.227E-05 0.239E-06
  18 F= -.17140980E+03 E0= -.17140980E+03  d E =-.281048E-01
       N       E                     dE             d eps       ncg     rms          ort
SDA:   1    -0.171380504700E+03    0.29288E-01    0.00000E+00  1200   0.100E+00 0.000E+00
CGA:   2    -0.171406090661E+03   -0.25586E-01   -0.25586E-01  1200   0.184E-01-0.165E-06
CGA:   3    -0.171412091026E+03   -0.60004E-02   -0.60003E-02  1200   0.351E-02-0.578E-05
CGA:   4    -0.171413070847E+03   -0.97982E-03   -0.97956E-03  1200   0.839E-03-0.398E-05
CGA:   5    -0.171413318966E+03   -0.24812E-03   -0.24803E-03  1200   0.188E-03-0.200E-05
CGA:   6    -0.171413395462E+03   -0.76496E-04   -0.76518E-04  1200   0.523E-04-0.310E-06
CGA:   7    -0.171413417242E+03   -0.21780E-04   -0.21821E-04  1200   0.152E-04-0.528E-06
CGA:   8    -0.171413422611E+03   -0.53692E-05   -0.53705E-05  1200   0.356E-05-0.939E-07
CGA:   9    -0.171413423844E+03   -0.12321E-05   -0.12321E-05  1200   0.745E-06 0.440E-07
  19 F= -.17141342E+03 E0= -.17141342E+03  d E =-.362734E-02
       N       E                     dE             d eps       ncg     rms          ort
SDA:   1    -0.171397779853E+03    0.15643E-01    0.00000E+00  1200   0.499E-01 0.000E+00
CGA:   2    -0.171410524718E+03   -0.12745E-01   -0.12745E-01  1200   0.917E-02-0.245E-06
CGA:   3    -0.171413513575E+03   -0.29889E-02   -0.29888E-02  1200   0.174E-02-0.410E-05
CGA:   4    -0.171414001326E+03   -0.48775E-03   -0.48757E-03  1200   0.418E-03-0.286E-05
CGA:   5    -0.171414124835E+03   -0.12351E-03   -0.12345E-03  1200   0.939E-04-0.144E-05
CGA:   6    -0.171414162949E+03   -0.38113E-04   -0.38130E-04  1200   0.260E-04-0.227E-06
CGA:   7    -0.171414173826E+03   -0.10877E-04   -0.10907E-04  1200   0.761E-05-0.371E-06
CGA:   8    -0.171414176500E+03   -0.26740E-05   -0.26749E-05  1200   0.178E-05-0.617E-07
  20 F= -.17141418E+03 E0= -.17141418E+03  d E =-.438000E-02
       N       E                     dE             d eps       ncg     rms          ort
SDA:   1    -0.171397254697E+03    0.16919E-01    0.00000E+00  1200   0.599E-01 0.000E+00
CGA:   2    -0.171412847055E+03   -0.15592E-01   -0.15593E-01  1200   0.111E-01-0.100E-06
CGA:   3    -0.171416412542E+03   -0.35655E-02   -0.35655E-02  1200   0.194E-02 0.242E-05
CGA:   4    -0.171416981353E+03   -0.56881E-03   -0.56881E-03  1200   0.440E-03-0.538E-08
CGA:   5    -0.171417108536E+03   -0.12718E-03   -0.12723E-03  1200   0.109E-03 0.106E-05
CGA:   6    -0.171417151837E+03   -0.43301E-04   -0.43267E-04  1200   0.297E-04 0.569E-06
CGA:   7    -0.171417164283E+03   -0.12446E-04   -0.12440E-04  1200   0.841E-05 0.759E-07
CGA:   8    -0.171417167254E+03   -0.29716E-05   -0.29717E-05  1200   0.197E-05-0.866E-09
  21 F= -.17141717E+03 E0= -.17141717E+03  d E =-.299075E-02
       N       E                     dE             d eps       ncg     rms          ort
SDA:   1    -0.171253014451E+03    0.16415E+00    0.00000E+00  1200   0.505E+00 0.000E+00
CGA:   2    -0.171384407893E+03   -0.13139E+00   -0.13141E+00  1200   0.935E-01 0.241E-04
CGA:   3    -0.171414482060E+03   -0.30074E-01   -0.30074E-01  1200   0.163E-01 0.948E-06
CGA:   4    -0.171419279842E+03   -0.47978E-02   -0.47979E-02  1200   0.371E-02 0.119E-05
CGA:   5    -0.171420353855E+03   -0.10740E-02   -0.10742E-02  1200   0.924E-03 0.353E-05
CGA:   6    -0.171420719602E+03   -0.36575E-03   -0.36562E-03  1200   0.251E-03 0.207E-05
CGA:   7    -0.171420824532E+03   -0.10493E-03   -0.10490E-03  1200   0.708E-04 0.307E-06
CGA:   8    -0.171420849518E+03   -0.24986E-04   -0.24987E-04  1200   0.166E-04-0.232E-07
CGA:   9    -0.171420855338E+03   -0.58202E-05   -0.58185E-05  1200   0.353E-05 0.168E-06
CGA:  10    -0.171420856669E+03   -0.13307E-05   -0.13320E-05  1200   0.945E-06-0.351E-07
  22 F= -.17142086E+03 E0= -.17142086E+03  d E =-.668017E-02
       N       E                     dE             d eps       ncg     rms          ort
SDA:   1    -0.171409505724E+03    0.11350E-01    0.00000E+00  1200   0.405E-01 0.000E+00
CGA:   2    -0.171420424275E+03   -0.10919E-01   -0.10919E-01  1200   0.769E-02 0.172E-05
CGA:   3    -0.171422882794E+03   -0.24585E-02   -0.24587E-02  1200   0.127E-02 0.621E-05
CGA:   4    -0.171423272707E+03   -0.38991E-03   -0.39000E-03  1200   0.268E-03 0.248E-05
CGA:   5    -0.171423351335E+03   -0.78629E-04   -0.78722E-04  1200   0.756E-04 0.204E-05
CGA:   6    -0.171423379564E+03   -0.28229E-04   -0.28193E-04  1200   0.211E-04 0.109E-05
CGA:   7    -0.171423388238E+03   -0.86737E-05   -0.86524E-05  1200   0.575E-05 0.321E-06
CGA:   8    -0.171423390295E+03   -0.20574E-05   -0.20569E-05  1200   0.132E-05 0.563E-07
  23 F= -.17142339E+03 E0= -.17142339E+03  d E =-.253363E-02
       N       E                     dE             d eps       ncg     rms          ort
SDA:   1    -0.171304077094E+03    0.11931E+00    0.00000E+00  1200   0.365E+00 0.000E+00
CGA:   2    -0.171402374942E+03   -0.98298E-01   -0.98307E-01  1200   0.692E-01 0.283E-04
CGA:   3    -0.171424533172E+03   -0.22158E-01   -0.22158E-01  1200   0.115E-01 0.139E-04
CGA:   4    -0.171428053630E+03   -0.35205E-02   -0.35207E-02  1200   0.240E-02 0.790E-05
CGA:   5    -0.171428762654E+03   -0.70902E-03   -0.70928E-03  1200   0.689E-03 0.647E-05
CGA:   6    -0.171429018696E+03   -0.25604E-03   -0.25591E-03  1200   0.193E-03 0.360E-05
CGA:   7    -0.171429097354E+03   -0.78658E-04   -0.78589E-04  1200   0.524E-04 0.100E-05
CGA:   8    -0.171429115967E+03   -0.18613E-04   -0.18611E-04  1200   0.119E-04 0.141E-06
CGA:   9    -0.171429120258E+03   -0.42917E-05   -0.42912E-05  1200   0.254E-05 0.327E-07
  24 F= -.17142912E+03 E0= -.17142912E+03  d E =-.826359E-02
       N       E                     dE             d eps       ncg     rms          ort
SDA:   1    -0.170932222622E+03    0.49689E+00    0.00000E+00  1200   0.146E+01 0.000E+00
CGA:   2    -0.171325114494E+03   -0.39289E+00   -0.39297E+00  1200   0.277E+00 0.194E-03
CGA:   3    -0.171413779365E+03   -0.88665E-01   -0.88664E-01  1200   0.459E-01 0.117E-05
CGA:   4    -0.171427891834E+03   -0.14112E-01   -0.14113E-01  1200   0.957E-02 0.178E-04
CGA:   5    -0.171430727421E+03   -0.28356E-02   -0.28361E-02  1200   0.277E-02 0.135E-04
CGA:   6    -0.171431753396E+03   -0.10260E-02   -0.10257E-02  1200   0.777E-03 0.819E-05
CGA:   7    -0.171432069488E+03   -0.31609E-03   -0.31595E-03  1200   0.211E-03 0.214E-05
CGA:   8    -0.171432144219E+03   -0.74732E-04   -0.74729E-04  1200   0.476E-04 0.233E-06
CGA:   9    -0.171432161434E+03   -0.17214E-04   -0.17215E-04  1200   0.101E-04-0.449E-07
CGA:  10    -0.171432165383E+03   -0.39494E-05   -0.39629E-05  1200   0.270E-05-0.270E-06
  25 F= -.17143217E+03 E0= -.17143217E+03  d E =-.113087E-01
       N       E                     dE             d eps       ncg     rms          ort
SDA:   1    -0.171372859230E+03    0.59302E-01    0.00000E+00  1200   0.178E+00 0.000E+00
CGA:   2    -0.171421084726E+03   -0.48225E-01   -0.48229E-01  1200   0.360E-01 0.105E-04
CGA:   3    -0.171432129406E+03   -0.11045E-01   -0.11045E-01  1200   0.685E-02 0.118E-04
CGA:   4    -0.171434025189E+03   -0.18958E-02   -0.18962E-02  1200   0.147E-02 0.555E-05
CGA:   5    -0.171434455429E+03   -0.43024E-03   -0.43044E-03  1200   0.328E-03 0.435E-05
CGA:   6    -0.171434586842E+03   -0.13141E-03   -0.13125E-03  1200   0.887E-04 0.271E-05
CGA:   7    -0.171434623886E+03   -0.37044E-04   -0.36977E-04  1200   0.270E-04 0.908E-06
CGA:   8    -0.171434633137E+03   -0.92508E-05   -0.92512E-05  1200   0.685E-05 0.106E-06
CGA:   9    -0.171434635533E+03   -0.23963E-05   -0.23960E-05  1200   0.141E-05 0.827E-07
  26 F= -.17143464E+03 E0= -.17143464E+03  d E =-.247015E-02
       N       E                     dE             d eps       ncg     rms          ort
SDA:   1    -0.171427381756E+03    0.72514E-02    0.00000E+00  1200   0.215E-01 0.000E+00
CGA:   2    -0.171433182765E+03   -0.58010E-02   -0.58012E-02  1200   0.433E-02 0.870E-06
CGA:   3    -0.171434509583E+03   -0.13268E-02   -0.13270E-02  1200   0.825E-03 0.472E-05
CGA:   4    -0.171434737481E+03   -0.22790E-03   -0.22802E-03  1200   0.177E-03 0.181E-05
CGA:   5    -0.171434789046E+03   -0.51565E-04   -0.51632E-04  1200   0.393E-04 0.146E-05
CGA:   6    -0.171434804763E+03   -0.15717E-04   -0.15662E-04  1200   0.105E-04 0.901E-06
CGA:   7    -0.171434809174E+03   -0.44111E-05   -0.43895E-05  1200   0.327E-05 0.313E-06
CGA:   8    -0.171434810305E+03   -0.11308E-05   -0.11312E-05  1200   0.843E-06 0.455E-07
  27 F= -.17143481E+03 E0= -.17143481E+03  d E =-.264492E-02
       N       E                     dE             d eps       ncg     rms          ort
SDA:   1    -0.171434242405E+03    0.56677E-03    0.00000E+00  1200   0.304E-02 0.000E+00
CGA:   2    -0.171435320124E+03   -0.10777E-02   -0.10777E-02  1200   0.107E-02-0.525E-06
CGA:   3    -0.171435610552E+03   -0.29043E-03   -0.29035E-03  1200   0.142E-03-0.115E-05
CGA:   4    -0.171435647388E+03   -0.36836E-04   -0.36792E-04  1200   0.297E-04-0.565E-06
CGA:   5    -0.171435656933E+03   -0.95449E-05   -0.95416E-05  1200   0.727E-05-0.302E-06
CGA:   6    -0.171435659825E+03   -0.28914E-05   -0.29033E-05  1200   0.223E-05-0.167E-06
CGA:   7    -0.171435660676E+03   -0.85154E-06   -0.85384E-06  1200   0.576E-06-0.393E-07
CGA:   8    -0.171435660885E+03   -0.20850E-06   -0.20893E-06  1200   0.132E-06-0.114E-07
  28 F= -.17143566E+03 E0= -.17143566E+03  d E =-.850580E-03
       N       E                     dE             d eps       ncg     rms          ort
SDA:   1    -0.171424280150E+03    0.11381E-01    0.00000E+00  1200   0.274E-01 0.000E+00
CGA:   2    -0.171433975536E+03   -0.96954E-02   -0.96954E-02  1200   0.962E-02-0.111E-05
CGA:   3    -0.171436590293E+03   -0.26148E-02   -0.26145E-02  1200   0.127E-02-0.323E-05
CGA:   4    -0.171436919402E+03   -0.32911E-03   -0.32897E-03  1200   0.264E-03-0.173E-05
CGA:   5    -0.171437004379E+03   -0.84977E-04   -0.84965E-04  1200   0.646E-04-0.874E-06
CGA:   6    -0.171437030180E+03   -0.25801E-04   -0.25834E-04  1200   0.196E-04-0.487E-06
CGA:   7    -0.171437037788E+03   -0.76074E-05   -0.76133E-05  1200   0.516E-05-0.109E-06
CGA:   8    -0.171437039651E+03   -0.18640E-05   -0.18650E-05  1200   0.120E-05-0.399E-07
  29 F= -.17143704E+03 E0= -.17143704E+03  d E =-.222935E-02
       N       E                     dE             d eps       ncg     rms          ort
SDA:   1    -0.171436064650E+03    0.97314E-03    0.00000E+00  1200   0.224E-02 0.000E+00
CGA:   2    -0.171436859752E+03   -0.79510E-03   -0.79511E-03  1200   0.788E-03-0.456E-06
CGA:   3    -0.171437074192E+03   -0.21444E-03   -0.21437E-03  1200   0.104E-03-0.969E-06
CGA:   4    -0.171437101302E+03   -0.27110E-04   -0.27071E-04  1200   0.217E-04-0.487E-06
CGA:   5    -0.171437108292E+03   -0.69901E-05   -0.69872E-05  1200   0.548E-05-0.256E-06
CGA:   6    -0.171437110489E+03   -0.21969E-05   -0.22083E-05  1200   0.170E-05-0.155E-06
CGA:   7    -0.171437111134E+03   -0.64531E-06   -0.64718E-06  1200   0.445E-06-0.340E-07
CGA:   8    -0.171437111294E+03   -0.15956E-06   -0.15991E-06  1200   0.103E-06-0.101E-07
  30 F= -.17143711E+03 E0= -.17143711E+03  d E =-.230099E-02
       N       E                     dE             d eps       ncg     rms          ort
SDA:   1    -0.171436234922E+03    0.87621E-03    0.00000E+00  1200   0.379E-02 0.000E+00
CGA:   2    -0.171437390154E+03   -0.11552E-02   -0.11553E-02  1200   0.115E-02 0.888E-06
CGA:   3    -0.171437726962E+03   -0.33681E-03   -0.33678E-03  1200   0.192E-03-0.548E-06
CGA:   4    -0.171437774381E+03   -0.47419E-04   -0.47432E-04  1200   0.339E-04 0.155E-06
CGA:   5    -0.171437784965E+03   -0.10585E-04   -0.10581E-04  1200   0.712E-05-0.178E-06
CGA:   6    -0.171437787643E+03   -0.26778E-05   -0.26796E-05  1200   0.202E-05-0.375E-07
CGA:   7    -0.171437788447E+03   -0.80378E-06   -0.80500E-06  1200   0.642E-06-0.170E-07
CGA:   8    -0.171437788670E+03   -0.22325E-06   -0.22339E-06  1200   0.153E-06-0.201E-08
  31 F= -.17143779E+03 E0= -.17143779E+03  d E =-.677377E-03
       N       E                     dE             d eps       ncg     rms          ort
SDA:   1    -0.171431174113E+03    0.66143E-02    0.00000E+00  1200   0.176E-01 0.000E+00
CGA:   2    -0.171436532032E+03   -0.53579E-02   -0.53579E-02  1200   0.535E-02 0.121E-05
CGA:   3    -0.171438093737E+03   -0.15617E-02   -0.15617E-02  1200   0.889E-03-0.972E-06
CGA:   4    -0.171438313870E+03   -0.22013E-03   -0.22016E-03  1200   0.157E-03 0.316E-06
CGA:   5    -0.171438362741E+03   -0.48872E-04   -0.48863E-04  1200   0.328E-04-0.376E-06
CGA:   6    -0.171438375104E+03   -0.12363E-04   -0.12366E-04  1200   0.930E-05-0.674E-07
CGA:   7    -0.171438378806E+03   -0.37015E-05   -0.37034E-05  1200   0.294E-05-0.289E-07
CGA:   8    -0.171438379838E+03   -0.10317E-05   -0.10319E-05  1200   0.708E-06-0.372E-08
  32 F= -.17143838E+03 E0= -.17143838E+03  d E =-.126854E-02
       N       E                     dE             d eps       ncg     rms          ort
SDA:   1    -0.171437751838E+03    0.62697E-03    0.00000E+00  1200   0.301E-02 0.000E+00
CGA:   2    -0.171438574424E+03   -0.82259E-03   -0.82263E-03  1200   0.738E-03 0.725E-06
CGA:   3    -0.171438792303E+03   -0.21788E-03   -0.21786E-03  1200   0.147E-03-0.407E-06
CGA:   4    -0.171438829463E+03   -0.37160E-04   -0.37153E-04  1200   0.254E-04-0.913E-07
CGA:   5    -0.171438837620E+03   -0.81564E-05   -0.81554E-05  1200   0.520E-05-0.943E-07
CGA:   6    -0.171438839616E+03   -0.19960E-05   -0.20000E-05  1200   0.147E-05-0.713E-07
CGA:   7    -0.171438840201E+03   -0.58553E-06   -0.58793E-06  1200   0.477E-06-0.330E-07
CGA:   8    -0.171438840364E+03   -0.16319E-06   -0.16327E-06  1200   0.114E-06-0.433E-08
  33 F= -.17143884E+03 E0= -.17143884E+03  d E =-.460527E-03
       N       E                     dE             d eps       ncg     rms          ort
SDA:   1    -0.171431605461E+03    0.72347E-02    0.00000E+00  1200   0.214E-01 0.000E+00
CGA:   2    -0.171437461628E+03   -0.58562E-02   -0.58562E-02  1200   0.524E-02 0.175E-05
CGA:   3    -0.171439010601E+03   -0.15490E-02   -0.15489E-02  1200   0.104E-02-0.105E-05
CGA:   4    -0.171439273854E+03   -0.26325E-03   -0.26323E-03  1200   0.180E-03-0.221E-06
CGA:   5    -0.171439331702E+03   -0.57847E-04   -0.57844E-04  1200   0.367E-04-0.240E-06
CGA:   6    -0.171439345701E+03   -0.13999E-04   -0.14008E-04  1200   0.102E-04-0.168E-06
CGA:   7    -0.171439349783E+03   -0.40821E-05   -0.40875E-05  1200   0.328E-05-0.782E-07
CGA:   8    -0.171439350929E+03   -0.11464E-05   -0.11466E-05  1200   0.796E-06-0.114E-07
  34 F= -.17143935E+03 E0= -.17143935E+03  d E =-.971092E-03
       N       E                     dE             d eps       ncg     rms          ort
SDA:   1    -0.171438046862E+03    0.13029E-02    0.00000E+00  1200   0.490E-02 0.000E+00
CGA:   2    -0.171439382501E+03   -0.13356E-02   -0.13357E-02  1200   0.952E-03 0.348E-06
CGA:   3    -0.171439680498E+03   -0.29800E-03   -0.29797E-03  1200   0.171E-03-0.114E-05
CGA:   4    -0.171439727100E+03   -0.46602E-04   -0.46572E-04  1200   0.377E-04-0.472E-06
CGA:   5    -0.171439738561E+03   -0.11461E-04   -0.11450E-04  1200   0.945E-05-0.396E-06
CGA:   6    -0.171439742146E+03   -0.35846E-05   -0.35961E-05  1200   0.269E-05-0.213E-06
CGA:   7    -0.171439743209E+03   -0.10637E-05   -0.10674E-05  1200   0.749E-06-0.500E-07
CGA:   8    -0.171439743471E+03   -0.26221E-06   -0.26235E-06  1200   0.163E-06-0.233E-08
  35 F= -.17143974E+03 E0= -.17143974E+03  d E =-.392542E-03
       N       E                     dE             d eps       ncg     rms          ort
SDA:   1    -0.171425155903E+03    0.14587E-01    0.00000E+00  1200   0.436E-01 0.000E+00
CGA:   2    -0.171437032190E+03   -0.11876E-01   -0.11876E-01  1200   0.847E-02 0.141E-05
CGA:   3    -0.171439681694E+03   -0.26495E-02   -0.26494E-02  1200   0.151E-02-0.326E-05
CGA:   4    -0.171440094841E+03   -0.41315E-03   -0.41306E-03  1200   0.334E-03-0.139E-05
CGA:   5    -0.171440195986E+03   -0.10114E-03   -0.10111E-03  1200   0.826E-04-0.113E-05
CGA:   6    -0.171440227294E+03   -0.31308E-04   -0.31337E-04  1200   0.231E-04-0.593E-06
CGA:   7    -0.171440236588E+03   -0.92942E-05   -0.93048E-05  1200   0.650E-05-0.146E-06
CGA:   8    -0.171440238901E+03   -0.23127E-05   -0.23131E-05  1200   0.145E-05-0.137E-07
  36 F= -.17144024E+03 E0= -.17144024E+03  d E =-.887972E-03
       N       E                     dE             d eps       ncg     rms          ort
SDA:   1    -0.171440181450E+03    0.55139E-04    0.00000E+00  1200   0.649E-03 0.000E+00
CGA:   2    -0.171440353037E+03   -0.17159E-03   -0.17160E-03  1200   0.109E-03 0.190E-06
CGA:   3    -0.171440388123E+03   -0.35087E-04   -0.35081E-04  1200   0.193E-04-0.388E-06
CGA:   4    -0.171440393691E+03   -0.55673E-05   -0.55623E-05  1200   0.422E-05-0.108E-06
CGA:   5    -0.171440395045E+03   -0.13545E-05   -0.13528E-05  1200   0.128E-05-0.156E-06
CGA:   6    -0.171440395504E+03   -0.45872E-06   -0.46132E-06  1200   0.374E-06-0.599E-07
CGA:   7    -0.171440395645E+03   -0.14080E-06   -0.14183E-06  1200   0.982E-07-0.147E-07
CGA:   8    -0.171440395678E+03   -0.33451E-07   -0.33603E-07  1200   0.221E-07-0.364E-08
  37 F= -.17144040E+03 E0= -.17144040E+03  d E =-.156777E-03
       N       E                     dE             d eps       ncg     rms          ort
SDA:   1    -0.171438918808E+03    0.14768E-02    0.00000E+00  1200   0.585E-02 0.000E+00
CGA:   2    -0.171440467114E+03   -0.15483E-02   -0.15484E-02  1200   0.985E-03 0.595E-06
CGA:   3    -0.171440782746E+03   -0.31563E-03   -0.31561E-03  1200   0.173E-03-0.121E-05
CGA:   4    -0.171440832461E+03   -0.49715E-04   -0.49700E-04  1200   0.384E-04-0.300E-06
CGA:   5    -0.171440844445E+03   -0.11984E-04   -0.11974E-04  1200   0.107E-04-0.466E-06
CGA:   6    -0.171440848339E+03   -0.38943E-05   -0.39004E-05  1200   0.300E-05-0.169E-06
CGA:   7    -0.171440849516E+03   -0.11770E-05   -0.11801E-05  1200   0.796E-06-0.461E-07
CGA:   8    -0.171440849793E+03   -0.27717E-06   -0.27746E-06  1200   0.180E-06-0.123E-07
  38 F= -.17144085E+03 E0= -.17144085E+03  d E =-.610892E-03
       N       E                     dE             d eps       ncg     rms          ort
SDA:   1    -0.171433971981E+03    0.68775E-02    0.00000E+00  1200   0.234E-01 0.000E+00
CGA:   2    -0.171440165361E+03   -0.61934E-02   -0.61935E-02  1200   0.394E-02 0.133E-05
CGA:   3    -0.171441427037E+03   -0.12617E-02   -0.12616E-02  1200   0.690E-03-0.234E-05
CGA:   4    -0.171441625746E+03   -0.19871E-03   -0.19868E-03  1200   0.153E-03-0.594E-06
CGA:   5    -0.171441673371E+03   -0.47625E-04   -0.47604E-04  1200   0.424E-04-0.908E-06
CGA:   6    -0.171441688848E+03   -0.15477E-04   -0.15489E-04  1200   0.118E-04-0.331E-06
CGA:   7    -0.171441693529E+03   -0.46804E-05   -0.46866E-05  1200   0.315E-05-0.933E-07
CGA:   8    -0.171441694631E+03   -0.11025E-05   -0.11031E-05  1200   0.712E-06-0.271E-07
  39 F= -.17144169E+03 E0= -.17144169E+03  d E =-.145573E-02
       N       E                     dE             d eps       ncg     rms          ort
SDA:   1    -0.171412243978E+03    0.29450E-01    0.00000E+00  1200   0.937E-01 0.000E+00
CGA:   2    -0.171437016550E+03   -0.24773E-01   -0.24773E-01  1200   0.158E-01 0.293E-05
CGA:   3    -0.171442062249E+03   -0.50457E-02   -0.50457E-02  1200   0.276E-02-0.407E-05
CGA:   4    -0.171442857245E+03   -0.79500E-03   -0.79493E-03  1200   0.613E-03-0.119E-05
CGA:   5    -0.171443047288E+03   -0.19004E-03   -0.19000E-03  1200   0.169E-03-0.173E-05
CGA:   6    -0.171443109033E+03   -0.61745E-04   -0.61767E-04  1200   0.469E-04-0.626E-06
CGA:   7    -0.171443127697E+03   -0.18664E-04   -0.18676E-04  1200   0.125E-04-0.188E-06
CGA:   8    -0.171443132089E+03   -0.43920E-05   -0.43931E-05  1200   0.283E-05-0.609E-07
  40 F= -.17144313E+03 E0= -.17144313E+03  d E =-.289319E-02
       N       E                     dE             d eps       ncg     rms          ort
SDA:   1    -0.171321456252E+03    0.12167E+00    0.00000E+00  1200   0.375E+00 0.000E+00
CGA:   2    -0.171420526121E+03   -0.99070E-01   -0.99069E-01  1200   0.631E-01 0.556E-05
CGA:   3    -0.171440712478E+03   -0.20186E-01   -0.20186E-01  1200   0.111E-01-0.324E-05
CGA:   4    -0.171443896070E+03   -0.31836E-02   -0.31834E-02  1200   0.246E-02-0.267E-05
CGA:   5    -0.171444656165E+03   -0.76009E-03   -0.76003E-03  1200   0.674E-03-0.310E-05
CGA:   6    -0.171444903165E+03   -0.24700E-03   -0.24704E-03  1200   0.187E-03-0.111E-05
CGA:   7    -0.171444977749E+03   -0.74584E-04   -0.74610E-04  1200   0.499E-04-0.379E-06
CGA:   8    -0.171444995273E+03   -0.17524E-04   -0.17527E-04  1200   0.113E-04-0.146E-06
CGA:   9    -0.171444999335E+03   -0.40618E-05   -0.40653E-05  1200   0.243E-05-0.140E-06
  41 F= -.17144500E+03 E0= -.17144500E+03  d E =-.476043E-02
       N       E                     dE             d eps       ncg     rms          ort
SDA:   1    -0.170950662816E+03    0.49433E+00    0.00000E+00  1200   0.150E+01 0.000E+00
CGA:   2    -0.171346629654E+03   -0.39597E+00   -0.39597E+00  1200   0.253E+00 0.130E-04
CGA:   3    -0.171427444307E+03   -0.80815E-01   -0.80816E-01  1200   0.444E-01 0.338E-04
CGA:   4    -0.171440218517E+03   -0.12774E-01   -0.12773E-01  1200   0.989E-02-0.853E-05
CGA:   5    -0.171443272707E+03   -0.30542E-02   -0.30541E-02  1200   0.270E-02-0.430E-05
CGA:   6    -0.171444264176E+03   -0.99147E-03   -0.99153E-03  1200   0.746E-03-0.166E-05
CGA:   7    -0.171444562551E+03   -0.29837E-03   -0.29843E-03  1200   0.199E-03-0.759E-06
CGA:   8    -0.171444632423E+03   -0.69872E-04   -0.69878E-04  1200   0.452E-04-0.383E-06
CGA:   9    -0.171444648645E+03   -0.16222E-04   -0.16231E-04  1200   0.969E-05-0.382E-06
CGA:  10    -0.171444652379E+03   -0.37340E-05   -0.37316E-05  1200   0.233E-05 0.522E-07
  42 F= -.17144465E+03 E0= -.17144465E+03  d E =-.441348E-02
       N       E                     dE             d eps       ncg     rms          ort
SDA:   1    -0.171287920785E+03    0.15673E+00    0.00000E+00  1200   0.478E+00 0.000E+00
CGA:   2    -0.171414325441E+03   -0.12640E+00   -0.12641E+00  1200   0.805E-01 0.171E-04
CGA:   3    -0.171440079721E+03   -0.25754E-01   -0.25754E-01  1200   0.140E-01 0.188E-05
CGA:   4    -0.171444128104E+03   -0.40484E-02   -0.40487E-02  1200   0.312E-02 0.434E-05
CGA:   5    -0.171445088031E+03   -0.95993E-03   -0.96007E-03  1200   0.848E-03 0.507E-05
CGA:   6    -0.171445399054E+03   -0.31102E-03   -0.31096E-03  1200   0.235E-03 0.211E-05
CGA:   7    -0.171445492883E+03   -0.93828E-04   -0.93798E-04  1200   0.627E-04 0.489E-06
CGA:   8    -0.171445514970E+03   -0.22087E-04   -0.22087E-04  1200   0.142E-04 0.661E-07
CGA:   9    -0.171445520050E+03   -0.50801E-05   -0.50801E-05  1200   0.301E-05 0.107E-07
CGA:  10    -0.171445521287E+03   -0.12365E-05   -0.12493E-05  1200   0.821E-06-0.174E-06
  43 F= -.17144552E+03 E0= -.17144552E+03  d E =-.528239E-02
       N       E                     dE             d eps       ncg     rms          ort
SDA:   1    -0.171414721691E+03    0.30798E-01    0.00000E+00  1200   0.943E-01 0.000E+00
CGA:   2    -0.171440451521E+03   -0.25730E-01   -0.25730E-01  1200   0.164E-01 0.129E-05
CGA:   3    -0.171445717883E+03   -0.52664E-02   -0.52663E-02  1200   0.291E-02-0.502E-05
CGA:   4    -0.171446543286E+03   -0.82540E-03   -0.82533E-03  1200   0.619E-03-0.100E-05
CGA:   5    -0.171446731805E+03   -0.18852E-03   -0.18847E-03  1200   0.164E-03-0.124E-05
CGA:   6    -0.171446791379E+03   -0.59575E-04   -0.59595E-04  1200   0.460E-04-0.774E-06
CGA:   7    -0.171446810001E+03   -0.18622E-04   -0.18651E-04  1200   0.125E-04-0.424E-06
CGA:   8    -0.171446814522E+03   -0.45212E-05   -0.45235E-05  1200   0.279E-05-0.962E-07
  44 F= -.17144681E+03 E0= -.17144681E+03  d E =-.129324E-02
       N       E                     dE             d eps       ncg     rms          ort
SDA:   1    -0.171432822095E+03    0.13988E-01    0.00000E+00  1200   0.418E-01 0.000E+00
CGA:   2    -0.171444235552E+03   -0.11413E-01   -0.11413E-01  1200   0.729E-02 0.266E-06
CGA:   3    -0.171446571858E+03   -0.23363E-02   -0.23362E-02  1200   0.129E-02-0.349E-05
CGA:   4    -0.171446938078E+03   -0.36622E-03   -0.36618E-03  1200   0.273E-03-0.692E-06
CGA:   5    -0.171447021511E+03   -0.83433E-04   -0.83405E-04  1200   0.730E-04-0.879E-06
CGA:   6    -0.171447048092E+03   -0.26581E-04   -0.26598E-04  1200   0.207E-04-0.555E-06
CGA:   7    -0.171447056475E+03   -0.83832E-05   -0.84045E-05  1200   0.565E-05-0.298E-06
CGA:   8    -0.171447058513E+03   -0.20385E-05   -0.20403E-05  1200   0.126E-05-0.652E-07
  45 F= -.17144706E+03 E0= -.17144706E+03  d E =-.153723E-02
       N       E                     dE             d eps       ncg     rms          ort
SDA:   1    -0.171441788867E+03    0.52676E-02    0.00000E+00  1200   0.190E-01 0.000E+00
CGA:   2    -0.171446733736E+03   -0.49449E-02   -0.49447E-02  1200   0.266E-02-0.183E-05
CGA:   3    -0.171447601431E+03   -0.86770E-03   -0.86766E-03  1200   0.466E-03-0.257E-05
CGA:   4    -0.171447746874E+03   -0.14544E-03   -0.14542E-03  1200   0.116E-03-0.892E-06
CGA:   5    -0.171447783252E+03   -0.36378E-04   -0.36366E-04  1200   0.363E-04-0.549E-06
CGA:   6    -0.171447796449E+03   -0.13197E-04   -0.13215E-04  1200   0.965E-05-0.614E-06
CGA:   7    -0.171447800227E+03   -0.37783E-05   -0.37896E-05  1200   0.226E-05-0.180E-06
CGA:   8    -0.171447801033E+03   -0.80580E-06   -0.80619E-06  1200   0.515E-06-0.121E-07
  46 F= -.17144780E+03 E0= -.17144780E+03  d E =-.742520E-03
       N       E                     dE             d eps       ncg     rms          ort
SDA:   1    -0.171421881306E+03    0.25919E-01    0.00000E+00  1200   0.840E-01 0.000E+00
CGA:   2    -0.171443715392E+03   -0.21834E-01   -0.21834E-01  1200   0.118E-01-0.280E-05
CGA:   3    -0.171447544432E+03   -0.38290E-02   -0.38290E-02  1200   0.205E-02-0.535E-05
CGA:   4    -0.171448185138E+03   -0.64071E-03   -0.64066E-03  1200   0.512E-03-0.171E-05
CGA:   5    -0.171448345375E+03   -0.16024E-03   -0.16021E-03  1200   0.160E-03-0.108E-05
CGA:   6    -0.171448403138E+03   -0.57764E-04   -0.57798E-04  1200   0.420E-04-0.124E-05
CGA:   7    -0.171448419677E+03   -0.16539E-04   -0.16563E-04  1200   0.989E-05-0.394E-06
CGA:   8    -0.171448423233E+03   -0.35565E-05   -0.35575E-05  1200   0.230E-05-0.396E-07
  47 F= -.17144842E+03 E0= -.17144842E+03  d E =-.136472E-02
       N       E                     dE             d eps       ncg     rms          ort
SDA:   1    -0.171441503553E+03    0.69161E-02    0.00000E+00  1200   0.226E-01 0.000E+00
CGA:   2    -0.171447867282E+03   -0.63637E-02   -0.63636E-02  1200   0.336E-02-0.244E-05
CGA:   3    -0.171448975556E+03   -0.11083E-02   -0.11083E-02  1200   0.612E-03 0.122E-05
CGA:   4    -0.171449158770E+03   -0.18321E-03   -0.18321E-03  1200   0.140E-03 0.801E-08
CGA:   5    -0.171449203061E+03   -0.44291E-04   -0.44292E-04  1200   0.403E-04 0.537E-07
CGA:   6    -0.171449217850E+03   -0.14789E-04   -0.14791E-04  1200   0.120E-04-0.616E-07
CGA:   7    -0.171449222380E+03   -0.45295E-05   -0.45275E-05  1200   0.298E-05 0.501E-07
CGA:   8    -0.171449223487E+03   -0.11070E-05   -0.11077E-05  1200   0.640E-06-0.147E-07
  48 F= -.17144922E+03 E0= -.17144922E+03  d E =-.800253E-03
       N       E                     dE             d eps       ncg     rms          ort
SDA:   1    -0.171381140941E+03    0.68081E-01    0.00000E+00  1200   0.203E+00 0.000E+00
CGA:   2    -0.171438419016E+03   -0.57278E-01   -0.57280E-01  1200   0.303E-01 0.184E-05
CGA:   3    -0.171448411685E+03   -0.99927E-02   -0.99927E-02  1200   0.553E-02 0.338E-05
CGA:   4    -0.171450063474E+03   -0.16518E-02   -0.16518E-02  1200   0.127E-02 0.391E-06
CGA:   5    -0.171450463512E+03   -0.40004E-03   -0.40005E-03  1200   0.363E-03 0.445E-06
CGA:   6    -0.171450596370E+03   -0.13286E-03   -0.13286E-03  1200   0.107E-03-0.627E-07
CGA:   7    -0.171450637109E+03   -0.40739E-04   -0.40733E-04  1200   0.268E-04 0.128E-06
CGA:   8    -0.171450647013E+03   -0.99042E-05   -0.99060E-05  1200   0.570E-05-0.540E-07
CGA:   9    -0.171450649059E+03   -0.20461E-05   -0.20461E-05  1200   0.127E-05 0.686E-08
  49 F= -.17145065E+03 E0= -.17145065E+03  d E =-.222583E-02
       N       E                     dE             d eps       ncg     rms          ort
SDA:   1    -0.171434727410E+03    0.15920E-01    0.00000E+00  1200   0.470E-01 0.000E+00
CGA:   2    -0.171447983366E+03   -0.13256E-01   -0.13256E-01  1200   0.701E-02-0.327E-05
CGA:   3    -0.171450294552E+03   -0.23112E-02   -0.23112E-02  1200   0.128E-02 0.189E-05
CGA:   4    -0.171450676507E+03   -0.38196E-03   -0.38196E-03  1200   0.296E-03 0.300E-07
CGA:   5    -0.171450769026E+03   -0.92519E-04   -0.92521E-04  1200   0.843E-04 0.945E-07
CGA:   6    -0.171450799942E+03   -0.30916E-04   -0.30919E-04  1200   0.249E-04-0.877E-07
CGA:   7    -0.171450809427E+03   -0.94847E-05   -0.94822E-05  1200   0.622E-05 0.592E-07
CGA:   8    -0.171450811733E+03   -0.23066E-05   -0.23072E-05  1200   0.133E-05-0.175E-07
  50 F= -.17145081E+03 E0= -.17145081E+03  d E =-.238850E-02
       N       E                     dE             d eps       ncg     rms          ort
SDA:   1    -0.171434920696E+03    0.15889E-01    0.00000E+00  1200   0.507E-01 0.000E+00
CGA:   2    -0.171448969519E+03   -0.14049E-01   -0.14049E-01  1200   0.733E-02 0.901E-07
CGA:   3    -0.171451282947E+03   -0.23134E-02   -0.23136E-02  1200   0.157E-02 0.685E-05
CGA:   4    -0.171451711239E+03   -0.42829E-03   -0.42853E-03  1200   0.375E-03 0.362E-05
CGA:   5    -0.171451829437E+03   -0.11820E-03   -0.11824E-03  1200   0.949E-04 0.199E-05
CGA:   6    -0.171451866314E+03   -0.36877E-04   -0.36828E-04  1200   0.265E-04 0.922E-06
CGA:   7    -0.171451876609E+03   -0.10295E-04   -0.10276E-04  1200   0.705E-05 0.383E-06
CGA:   8    -0.171451879143E+03   -0.25337E-05   -0.25338E-05  1200   0.182E-05 0.175E-08
  51 F= -.17145188E+03 E0= -.17145188E+03  d E =-.106741E-02
       N       E                     dE             d eps       ncg     rms          ort
SDA:   1    -0.171423640928E+03    0.28236E-01    0.00000E+00  1200   0.859E-01 0.000E+00
CGA:   2    -0.171447450073E+03   -0.23809E-01   -0.23810E-01  1200   0.124E-01 0.158E-05
CGA:   3    -0.171451372800E+03   -0.39227E-02   -0.39229E-02  1200   0.267E-02 0.896E-05
CGA:   4    -0.171452099563E+03   -0.72676E-03   -0.72706E-03  1200   0.636E-03 0.478E-05
CGA:   5    -0.171452300185E+03   -0.20062E-03   -0.20067E-03  1200   0.161E-03 0.264E-05
CGA:   6    -0.171452362823E+03   -0.62638E-04   -0.62571E-04  1200   0.451E-04 0.121E-05
CGA:   7    -0.171452380339E+03   -0.17515E-04   -0.17490E-04  1200   0.120E-04 0.492E-06
CGA:   8    -0.171452384632E+03   -0.42935E-05   -0.42937E-05  1200   0.307E-05-0.230E-08
  52 F= -.17145238E+03 E0= -.17145238E+03  d E =-.157290E-02
       N       E                     dE             d eps       ncg     rms          ort
SDA:   1    -0.171440709526E+03    0.11671E-01    0.00000E+00  1200   0.376E-01 0.000E+00
CGA:   2    -0.171451313125E+03   -0.10604E-01   -0.10604E-01  1200   0.530E-02-0.115E-05
CGA:   3    -0.171452995290E+03   -0.16822E-02   -0.16823E-02  1200   0.110E-02 0.742E-05
CGA:   4    -0.171453301746E+03   -0.30646E-03   -0.30663E-03  1200   0.267E-03 0.305E-05
CGA:   5    -0.171453385515E+03   -0.83769E-04   -0.83813E-04  1200   0.721E-04 0.237E-05
CGA:   6    -0.171453413250E+03   -0.27735E-04   -0.27695E-04  1200   0.213E-04 0.807E-06
CGA:   7    -0.171453421244E+03   -0.79934E-05   -0.79805E-05  1200   0.542E-05 0.342E-06
CGA:   8    -0.171453423210E+03   -0.19659E-05   -0.19667E-05  1200   0.132E-05-0.277E-07
  53 F= -.17145342E+03 E0= -.17145342E+03  d E =-.103858E-02
       N       E                     dE             d eps       ncg     rms          ort
SDA:   1    -0.171388187015E+03    0.65234E-01    0.00000E+00  1200   0.196E+00 0.000E+00
CGA:   2    -0.171443373179E+03   -0.55186E-01   -0.55189E-01  1200   0.276E-01 0.119E-04
CGA:   3    -0.171452150149E+03   -0.87770E-02   -0.87772E-02  1200   0.571E-02 0.157E-04
CGA:   4    -0.171453747417E+03   -0.15973E-02   -0.15977E-02  1200   0.139E-02 0.755E-05
CGA:   5    -0.171454185010E+03   -0.43759E-03   -0.43769E-03  1200   0.378E-03 0.567E-05
CGA:   6    -0.171454329706E+03   -0.14470E-03   -0.14460E-03  1200   0.111E-03 0.191E-05
CGA:   7    -0.171454371516E+03   -0.41810E-04   -0.41780E-04  1200   0.284E-04 0.738E-06
CGA:   8    -0.171454381674E+03   -0.10158E-04   -0.10160E-04  1200   0.679E-05-0.978E-07
CGA:   9    -0.171454384070E+03   -0.23963E-05   -0.23976E-05  1200   0.148E-05-0.621E-07
  54 F= -.17145438E+03 E0= -.17145438E+03  d E =-.199944E-02
       N       E                     dE             d eps       ncg     rms          ort
SDA:   1    -0.171444750298E+03    0.96314E-02    0.00000E+00  1200   0.290E-01 0.000E+00
CGA:   2    -0.171453324509E+03   -0.85742E-02   -0.85741E-02  1200   0.473E-02-0.549E-05
CGA:   3    -0.171454785616E+03   -0.14611E-02   -0.14613E-02  1200   0.113E-02 0.600E-05
CGA:   4    -0.171455081836E+03   -0.29622E-03   -0.29632E-03  1200   0.230E-03 0.122E-05
CGA:   5    -0.171455157268E+03   -0.75432E-04   -0.75439E-04  1200   0.554E-04 0.135E-05
CGA:   6    -0.171455178931E+03   -0.21663E-04   -0.21646E-04  1200   0.176E-04 0.294E-06
CGA:   7    -0.171455185382E+03   -0.64506E-05   -0.64418E-05  1200   0.464E-05 0.293E-06
CGA:   8    -0.171455187111E+03   -0.17295E-05   -0.17304E-05  1200   0.107E-05-0.219E-07
  55 F= -.17145519E+03 E0= -.17145519E+03  d E =-.803041E-03
       N       E                     dE             d eps       ncg     rms          ort
SDA:   1    -0.171376127667E+03    0.79058E-01    0.00000E+00  1200   0.222E+00 0.000E+00
CGA:   2    -0.171441827267E+03   -0.65700E-01   -0.65702E-01  1200   0.362E-01 0.750E-05
CGA:   3    -0.171453046423E+03   -0.11219E-01   -0.11219E-01  1200   0.864E-02 0.124E-04
CGA:   4    -0.171455313731E+03   -0.22673E-02   -0.22677E-02  1200   0.177E-02 0.418E-05
CGA:   5    -0.171455893980E+03   -0.58025E-03   -0.58026E-03  1200   0.428E-03 0.408E-05
CGA:   6    -0.171456060498E+03   -0.16652E-03   -0.16646E-03  1200   0.135E-03 0.939E-06
CGA:   7    -0.171456110337E+03   -0.49839E-04   -0.49813E-04  1200   0.360E-04 0.795E-06
CGA:   8    -0.171456123525E+03   -0.13188E-04   -0.13191E-04  1200   0.812E-05-0.940E-07
CGA:   9    -0.171456126375E+03   -0.28494E-05   -0.28486E-05  1200   0.171E-05 0.611E-07
  56 F= -.17145613E+03 E0= -.17145613E+03  d E =-.174230E-02
       N       E                     dE             d eps       ncg     rms          ort
SDA:   1    -0.171437366438E+03    0.18757E-01    0.00000E+00  1200   0.529E-01 0.000E+00
CGA:   2    -0.171453325194E+03   -0.15959E-01   -0.15959E-01  1200   0.894E-02-0.679E-05
CGA:   3    -0.171456058511E+03   -0.27333E-02   -0.27336E-02  1200   0.222E-02 0.102E-04
CGA:   4    -0.171456632703E+03   -0.57419E-03   -0.57444E-03  1200   0.434E-03 0.298E-05
CGA:   5    -0.171456775020E+03   -0.14232E-03   -0.14233E-03  1200   0.102E-03 0.204E-05
CGA:   6    -0.171456813931E+03   -0.38911E-04   -0.38873E-04  1200   0.332E-04 0.825E-06
CGA:   7    -0.171456826094E+03   -0.12163E-04   -0.12148E-04  1200   0.885E-05 0.521E-06
CGA:   8    -0.171456829452E+03   -0.33573E-05   -0.33579E-05  1200   0.206E-05-0.127E-07
  57 F= -.17145683E+03 E0= -.17145683E+03  d E =-.703077E-03
       N       E                     dE             d eps       ncg     rms          ort
SDA:   1    -0.171456297812E+03    0.52828E-03    0.00000E+00  1200   0.149E-02 0.000E+00
CGA:   2    -0.171456746791E+03   -0.44898E-03   -0.44892E-03  1200   0.250E-03-0.164E-05
CGA:   3    -0.171456822964E+03   -0.76174E-04   -0.76229E-04  1200   0.609E-04 0.177E-05
CGA:   4    -0.171456838849E+03   -0.15885E-04   -0.15923E-04  1200   0.117E-04 0.506E-06
CGA:   5    -0.171456842700E+03   -0.38513E-05   -0.38530E-05  1200   0.281E-05 0.309E-06
CGA:   6    -0.171456843774E+03   -0.10733E-05   -0.10682E-05  1200   0.901E-06 0.134E-06
CGA:   7    -0.171456844102E+03   -0.32780E-06   -0.32672E-06  1200   0.228E-06 0.875E-07
CGA:   8    -0.171456844199E+03   -0.97271E-07   -0.97148E-07  1200   0.598E-07 0.436E-08
  58 F= -.17145684E+03 E0= -.17145684E+03  d E =-.717824E-03
       N       E                     dE             d eps       ncg     rms          ort
SDA:   1    -0.171452057420E+03    0.47867E-02    0.00000E+00  1200   0.146E-01 0.000E+00
CGA:   2    -0.171456269584E+03   -0.42122E-02   -0.42120E-02  1200   0.286E-02-0.393E-05
CGA:   3    -0.171457098311E+03   -0.82873E-03   -0.82901E-03  1200   0.669E-03 0.676E-05
CGA:   4    -0.171457281092E+03   -0.18278E-03   -0.18295E-03  1200   0.127E-03 0.282E-05
CGA:   5    -0.171457320734E+03   -0.39642E-04   -0.39673E-04  1200   0.312E-04 0.168E-05
CGA:   6    -0.171457332375E+03   -0.11641E-04   -0.11619E-04  1200   0.914E-05 0.555E-06
CGA:   7    -0.171457335936E+03   -0.35605E-05   -0.35397E-05  1200   0.248E-05 0.411E-06
CGA:   8    -0.171457336841E+03   -0.90593E-06   -0.90504E-06  1200   0.657E-06 0.561E-07
  59 F= -.17145734E+03 E0= -.17145734E+03  d E =-.492643E-03
       N       E                     dE             d eps       ncg     rms          ort
SDA:   1    -0.171427535621E+03    0.29800E-01    0.00000E+00  1200   0.835E-01 0.000E+00
CGA:   2    -0.171451692378E+03   -0.24157E-01   -0.24157E-01  1200   0.164E-01-0.290E-05
CGA:   3    -0.171456454313E+03   -0.47619E-02   -0.47624E-02  1200   0.384E-02 0.149E-04
CGA:   4    -0.171457504366E+03   -0.10501E-02   -0.10505E-02  1200   0.732E-03 0.700E-05
CGA:   5    -0.171457732940E+03   -0.22857E-03   -0.22864E-03  1200   0.181E-03 0.419E-05
CGA:   6    -0.171457800343E+03   -0.67403E-04   -0.67343E-04  1200   0.534E-04 0.138E-05
CGA:   7    -0.171457821289E+03   -0.20946E-04   -0.20886E-04  1200   0.147E-04 0.101E-05
CGA:   8    -0.171457826524E+03   -0.52358E-05   -0.52339E-05  1200   0.381E-05 0.110E-06
CGA:   9    -0.171457827858E+03   -0.13339E-05   -0.13338E-05  1200   0.743E-06 0.948E-08
  60 F= -.17145783E+03 E0= -.17145783E+03  d E =-.983659E-03
       N       E                     dE             d eps       ncg     rms          ort
SDA:   1    -0.171450279987E+03    0.75465E-02    0.00000E+00  1200   0.231E-01 0.000E+00
CGA:   2    -0.171456738955E+03   -0.64590E-02   -0.64590E-02  1200   0.427E-02-0.191E-05
CGA:   3    -0.171458046632E+03   -0.13077E-02   -0.13079E-02  1200   0.852E-03 0.101E-04
CGA:   4    -0.171458292969E+03   -0.24634E-03   -0.24652E-03  1200   0.186E-03 0.439E-05
CGA:   5    -0.171458346830E+03   -0.53860E-04   -0.53964E-04  1200   0.478E-04 0.257E-05
CGA:   6    -0.171458364617E+03   -0.17787E-04   -0.17745E-04  1200   0.133E-04 0.108E-05
CGA:   7    -0.171458369938E+03   -0.53212E-05   -0.52848E-05  1200   0.365E-05 0.612E-06
CGA:   8    -0.171458371249E+03   -0.13106E-05   -0.13094E-05  1200   0.946E-06 0.112E-06
  61 F= -.17145837E+03 E0= -.17145837E+03  d E =-.543391E-03
       N       E                     dE             d eps       ncg     rms          ort
SDA:   1    -0.171435180535E+03    0.23189E-01    0.00000E+00  1200   0.673E-01 0.000E+00
CGA:   2    -0.171453982361E+03   -0.18802E-01   -0.18802E-01  1200   0.124E-01-0.405E-06
CGA:   3    -0.171457793416E+03   -0.38111E-02   -0.38114E-02  1200   0.248E-02 0.169E-04
CGA:   4    -0.171458512379E+03   -0.71896E-03   -0.71928E-03  1200   0.543E-03 0.762E-05
CGA:   5    -0.171458670073E+03   -0.15769E-03   -0.15786E-03  1200   0.141E-03 0.444E-05
CGA:   6    -0.171458722182E+03   -0.52109E-04   -0.52031E-04  1200   0.392E-04 0.187E-05
CGA:   7    -0.171458737884E+03   -0.15701E-04   -0.15632E-04  1200   0.108E-04 0.105E-05
CGA:   8    -0.171458741715E+03   -0.38311E-05   -0.38288E-05  1200   0.276E-05 0.171E-06
  62 F= -.17145874E+03 E0= -.17145874E+03  d E =-.913857E-03
       N       E                     dE             d eps       ncg     rms          ort
SDA:   1    -0.171454500578E+03    0.42373E-02    0.00000E+00  1200   0.136E-01 0.000E+00
CGA:   2    -0.171458191900E+03   -0.36913E-02   -0.36913E-02  1200   0.256E-02-0.150E-05
CGA:   3    -0.171458991943E+03   -0.80004E-03   -0.80014E-03  1200   0.471E-03 0.606E-05
CGA:   4    -0.171459132084E+03   -0.14014E-03   -0.14023E-03  1200   0.101E-03 0.270E-05
CGA:   5    -0.171459161114E+03   -0.29030E-04   -0.29090E-04  1200   0.262E-04 0.150E-05
CGA:   6    -0.171459170928E+03   -0.98148E-05   -0.97879E-05  1200   0.721E-05 0.623E-06
CGA:   7    -0.171459173839E+03   -0.29111E-05   -0.28870E-05  1200   0.195E-05 0.379E-06
CGA:   8    -0.171459174558E+03   -0.71889E-06   -0.71751E-06  1200   0.476E-06 0.774E-07
  63 F= -.17145917E+03 E0= -.17145917E+03  d E =-.432843E-03
       N       E                     dE             d eps       ncg     rms          ort
SDA:   1    -0.171417885080E+03    0.41289E-01    0.00000E+00  1200   0.122E+00 0.000E+00
CGA:   2    -0.171451082435E+03   -0.33197E-01   -0.33199E-01  1200   0.230E-01 0.411E-05
CGA:   3    -0.171458294925E+03   -0.72125E-02   -0.72128E-02  1200   0.426E-02 0.174E-04
CGA:   4    -0.171459560829E+03   -0.12659E-02   -0.12662E-02  1200   0.920E-03 0.828E-05
CGA:   5    -0.171459825790E+03   -0.26496E-03   -0.26514E-03  1200   0.238E-03 0.465E-05
CGA:   6    -0.171459914690E+03   -0.88900E-04   -0.88814E-04  1200   0.658E-04 0.190E-05
CGA:   7    -0.171459941373E+03   -0.26683E-04   -0.26599E-04  1200   0.181E-04 0.115E-05
CGA:   8    -0.171459947871E+03   -0.64980E-05   -0.64940E-05  1200   0.434E-05 0.196E-06
CGA:   9    -0.171459949433E+03   -0.15626E-05   -0.15629E-05  1200   0.911E-06-0.618E-08
  64 F= -.17145995E+03 E0= -.17145995E+03  d E =-.120772E-02
       N       E                     dE             d eps       ncg     rms          ort
SDA:   1    -0.171290948115E+03    0.16900E+00    0.00000E+00  1200   0.487E+00 0.000E+00
CGA:   2    -0.171423675938E+03   -0.13273E+00   -0.13274E+00  1200   0.920E-01 0.593E-04
CGA:   3    -0.171452539033E+03   -0.28863E-01   -0.28863E-01  1200   0.171E-01 0.296E-04
CGA:   4    -0.171457608076E+03   -0.50690E-02   -0.50697E-02  1200   0.369E-02 0.177E-04
CGA:   5    -0.171458671375E+03   -0.10633E-02   -0.10637E-02  1200   0.958E-03 0.949E-05
CGA:   6    -0.171459028144E+03   -0.35677E-03   -0.35659E-03  1200   0.265E-03 0.404E-05
CGA:   7    -0.171459135735E+03   -0.10759E-03   -0.10742E-03  1200   0.736E-04 0.233E-05
CGA:   8    -0.171459161901E+03   -0.26166E-04   -0.26159E-04  1200   0.175E-04 0.368E-06
CGA:   9    -0.171459168152E+03   -0.62511E-05   -0.62522E-05  1200   0.365E-05-0.474E-07
CGA:  10    -0.171459169515E+03   -0.13634E-05   -0.13649E-05  1200   0.896E-06-0.345E-07
  65 F= -.17145917E+03 E0= -.17145917E+03  d E =-.427800E-03
       N       E                     dE             d eps       ncg     rms          ort
SDA:   1    -0.171364503768E+03    0.94664E-01    0.00000E+00  1200   0.277E+00 0.000E+00
CGA:   2    -0.171439876758E+03   -0.75373E-01   -0.75368E-01  1200   0.523E-01-0.710E-05
CGA:   3    -0.171456262815E+03   -0.16386E-01   -0.16386E-01  1200   0.972E-02-0.234E-04
CGA:   4    -0.171459149685E+03   -0.28869E-02   -0.28864E-02  1200   0.212E-02-0.120E-04
CGA:   5    -0.171459760734E+03   -0.61105E-03   -0.61078E-03  1200   0.549E-03-0.615E-05
CGA:   6    -0.171459964787E+03   -0.20405E-03   -0.20415E-03  1200   0.152E-03-0.224E-05
CGA:   7    -0.171460026527E+03   -0.61740E-04   -0.61862E-04  1200   0.428E-04-0.162E-05
CGA:   8    -0.171460041429E+03   -0.14903E-04   -0.14907E-04  1200   0.101E-04-0.276E-06
CGA:   9    -0.171460044952E+03   -0.35228E-05   -0.35232E-05  1200   0.205E-05-0.229E-07
  66 F= -.17146004E+03 E0= -.17146004E+03  d E =-.130324E-02
       N       E                     dE             d eps       ncg     rms          ort
SDA:   1    -0.171444649112E+03    0.15392E-01    0.00000E+00  1200   0.463E-01 0.000E+00
CGA:   2    -0.171457210470E+03   -0.12561E-01   -0.12562E-01  1200   0.902E-02-0.230E-05
CGA:   3    -0.171460070314E+03   -0.28598E-02   -0.28599E-02  1200   0.156E-02 0.423E-05
CGA:   4    -0.171460544402E+03   -0.47409E-03   -0.47414E-03  1200   0.340E-03 0.169E-05
CGA:   5    -0.171460642027E+03   -0.97626E-04   -0.97675E-04  1200   0.903E-04 0.104E-05
CGA:   6    -0.171460675398E+03   -0.33371E-04   -0.33362E-04  1200   0.251E-04 0.243E-06
CGA:   7    -0.171460685436E+03   -0.10037E-04   -0.10024E-04  1200   0.698E-05 0.217E-06
CGA:   8    -0.171460687937E+03   -0.25018E-05   -0.25009E-05  1200   0.160E-05 0.572E-07
  67 F= -.17146069E+03 E0= -.17146069E+03  d E =-.642985E-03
       N       E                     dE             d eps       ncg     rms          ort
SDA:   1    -0.171356994754E+03    0.10369E+00    0.00000E+00  1200   0.301E+00 0.000E+00
CGA:   2    -0.171438707188E+03   -0.81712E-01   -0.81718E-01  1200   0.587E-01 0.169E-04
CGA:   3    -0.171457316318E+03   -0.18609E-01   -0.18609E-01  1200   0.102E-01 0.885E-05
CGA:   4    -0.171460403089E+03   -0.30868E-02   -0.30869E-02  1200   0.222E-02 0.461E-05
CGA:   5    -0.171461038895E+03   -0.63581E-03   -0.63594E-03  1200   0.593E-03 0.292E-05
CGA:   6    -0.171461258070E+03   -0.21918E-03   -0.21914E-03  1200   0.166E-03 0.859E-06
CGA:   7    -0.171461324540E+03   -0.66469E-04   -0.66428E-04  1200   0.464E-04 0.618E-06
CGA:   8    -0.171461341114E+03   -0.16575E-04   -0.16572E-04  1200   0.106E-04 0.149E-06
CGA:   9    -0.171461344990E+03   -0.38756E-05   -0.38758E-05  1200   0.220E-05-0.450E-08
  68 F= -.17146134E+03 E0= -.17146134E+03  d E =-.130004E-02
       N       E                     dE             d eps       ncg     rms          ort
SDA:   1    -0.171453301475E+03    0.80396E-02    0.00000E+00  1200   0.252E-01 0.000E+00
CGA:   2    -0.171460003892E+03   -0.67024E-02   -0.67023E-02  1200   0.474E-02-0.245E-05
CGA:   3    -0.171461518500E+03   -0.15146E-02   -0.15146E-02  1200   0.808E-03 0.943E-06
CGA:   4    -0.171461769054E+03   -0.25055E-03   -0.25056E-03  1200   0.179E-03 0.186E-06
CGA:   5    -0.171461820705E+03   -0.51651E-04   -0.51661E-04  1200   0.490E-04 0.219E-06
CGA:   6    -0.171461838971E+03   -0.18266E-04   -0.18270E-04  1200   0.137E-04-0.991E-07
CGA:   7    -0.171461844463E+03   -0.54921E-05   -0.54907E-05  1200   0.372E-05 0.233E-07
CGA:   8    -0.171461845793E+03   -0.13296E-05   -0.13294E-05  1200   0.833E-06 0.181E-07
  69 F= -.17146185E+03 E0= -.17146185E+03  d E =-.500803E-03
       N       E                     dE             d eps       ncg     rms          ort
SDA:   1    -0.171385864576E+03    0.75980E-01    0.00000E+00  1200   0.227E+00 0.000E+00
CGA:   2    -0.171446240206E+03   -0.60376E-01   -0.60378E-01  1200   0.427E-01 0.326E-05
CGA:   3    -0.171459899004E+03   -0.13659E-01   -0.13659E-01  1200   0.729E-02 0.236E-05
CGA:   4    -0.171462160694E+03   -0.22617E-02   -0.22617E-02  1200   0.161E-02 0.896E-06
CGA:   5    -0.171462627896E+03   -0.46720E-03   -0.46724E-03  1200   0.442E-03 0.822E-06
CGA:   6    -0.171462791652E+03   -0.16376E-03   -0.16376E-03  1200   0.122E-03-0.113E-06
CGA:   7    -0.171462840742E+03   -0.49089E-04   -0.49083E-04  1200   0.335E-04 0.905E-07
CGA:   8    -0.171462852714E+03   -0.11973E-04   -0.11972E-04  1200   0.746E-05 0.401E-07
CGA:   9    -0.171462855479E+03   -0.27653E-05   -0.27651E-05  1200   0.149E-05 0.133E-07
  70 F= -.17146286E+03 E0= -.17146286E+03  d E =-.151049E-02
       N       E                     dE             d eps       ncg     rms          ort
SDA:   1    -0.171154838741E+03    0.30801E+00    0.00000E+00  1200   0.907E+00 0.000E+00
CGA:   2    -0.171396192796E+03   -0.24135E+00   -0.24138E+00  1200   0.171E+00 0.676E-04
CGA:   3    -0.171450825229E+03   -0.54632E-01   -0.54633E-01  1200   0.292E-01 0.480E-05
CGA:   4    -0.171459876833E+03   -0.90516E-02   -0.90517E-02  1200   0.648E-02 0.297E-05
CGA:   5    -0.171461749698E+03   -0.18729E-02   -0.18730E-02  1200   0.177E-02 0.230E-05
CGA:   6    -0.171462406122E+03   -0.65642E-03   -0.65641E-03  1200   0.490E-03 0.307E-06
CGA:   7    -0.171462602882E+03   -0.19676E-03   -0.19674E-03  1200   0.134E-03 0.253E-06
CGA:   8    -0.171462650868E+03   -0.47986E-04   -0.47985E-04  1200   0.299E-04 0.461E-07
CGA:   9    -0.171462661967E+03   -0.11099E-04   -0.11100E-04  1200   0.600E-05-0.276E-07
CGA:  10    -0.171462664298E+03   -0.23308E-05   -0.23324E-05  1200   0.152E-05-0.311E-07
  71 F= -.17146266E+03 E0= -.17146266E+03  d E =-.131931E-02
       N       E                     dE             d eps       ncg     rms          ort
SDA:   1    -0.171364177300E+03    0.98485E-01    0.00000E+00  1200   0.292E+00 0.000E+00
CGA:   2    -0.171441800306E+03   -0.77623E-01   -0.77620E-01  1200   0.549E-01 0.807E-05
CGA:   3    -0.171459342723E+03   -0.17542E-01   -0.17542E-01  1200   0.937E-02-0.165E-05
CGA:   4    -0.171462244118E+03   -0.29014E-02   -0.29014E-02  1200   0.208E-02-0.232E-06
CGA:   5    -0.171462844433E+03   -0.60031E-03   -0.60031E-03  1200   0.565E-03-0.117E-06
CGA:   6    -0.171463053291E+03   -0.20886E-03   -0.20883E-03  1200   0.155E-03 0.719E-06
CGA:   7    -0.171463115796E+03   -0.62505E-04   -0.62506E-04  1200   0.426E-04-0.117E-07
CGA:   8    -0.171463131081E+03   -0.15285E-04   -0.15287E-04  1200   0.958E-05-0.725E-07
CGA:   9    -0.171463134639E+03   -0.35581E-05   -0.35607E-05  1200   0.194E-05-0.842E-07
  72 F= -.17146313E+03 E0= -.17146313E+03  d E =-.178965E-02
       N       E                     dE             d eps       ncg     rms          ort
SDA:   1    -0.171452014908E+03    0.11116E-01    0.00000E+00  1200   0.348E-01 0.000E+00
CGA:   2    -0.171461247733E+03   -0.92328E-02   -0.92329E-02  1200   0.652E-02-0.112E-05
CGA:   3    -0.171463348125E+03   -0.21004E-02   -0.21004E-02  1200   0.105E-02-0.165E-05
CGA:   4    -0.171463683382E+03   -0.33526E-03   -0.33524E-03  1200   0.217E-03-0.910E-06
CGA:   5    -0.171463749353E+03   -0.65971E-04   -0.65947E-04  1200   0.622E-04-0.649E-06
CGA:   6    -0.171463771880E+03   -0.22527E-04   -0.22534E-04  1200   0.175E-04-0.289E-06
CGA:   7    -0.171463778765E+03   -0.68847E-05   -0.68926E-05  1200   0.470E-05-0.138E-06
CGA:   8    -0.171463780414E+03   -0.16493E-05   -0.16496E-05  1200   0.105E-05-0.169E-07
  73 F= -.17146378E+03 E0= -.17146378E+03  d E =-.645775E-03
       N       E                     dE             d eps       ncg     rms          ort
SDA:   1    -0.171359250436E+03    0.10453E+00    0.00000E+00  1200   0.312E+00 0.000E+00
CGA:   2    -0.171442197716E+03   -0.82947E-01   -0.82952E-01  1200   0.586E-01 0.116E-04
CGA:   3    -0.171461067059E+03   -0.18869E-01   -0.18869E-01  1200   0.939E-02-0.365E-05
CGA:   4    -0.171464080472E+03   -0.30134E-02   -0.30134E-02  1200   0.194E-02-0.272E-05
CGA:   5    -0.171464670093E+03   -0.58962E-03   -0.58957E-03  1200   0.560E-03-0.160E-05
CGA:   6    -0.171464873336E+03   -0.20324E-03   -0.20326E-03  1200   0.158E-03-0.671E-06
CGA:   7    -0.171464935783E+03   -0.62447E-04   -0.62469E-04  1200   0.424E-04-0.379E-06
CGA:   8    -0.171464950777E+03   -0.14994E-04   -0.14995E-04  1200   0.950E-05-0.672E-07
CGA:   9    -0.171464954189E+03   -0.34118E-05   -0.34113E-05  1200   0.197E-05 0.354E-07
  74 F= -.17146495E+03 E0= -.17146495E+03  d E =-.181955E-02
       N       E                     dE             d eps       ncg     rms          ort
SDA:   1    -0.171041441708E+03    0.42351E+00    0.00000E+00  1200   0.125E+01 0.000E+00
CGA:   2    -0.171372829498E+03   -0.33139E+00   -0.33143E+00  1200   0.235E+00 0.116E-03
CGA:   3    -0.171448306892E+03   -0.75477E-01   -0.75478E-01  1200   0.377E-01 0.669E-05
CGA:   4    -0.171460383971E+03   -0.12077E-01   -0.12077E-01  1200   0.784E-02-0.554E-05
CGA:   5    -0.171462753607E+03   -0.23696E-02   -0.23696E-02  1200   0.225E-02-0.211E-05
CGA:   6    -0.171463572745E+03   -0.81914E-03   -0.81916E-03  1200   0.634E-03-0.706E-06
CGA:   7    -0.171463823699E+03   -0.25095E-03   -0.25099E-03  1200   0.169E-03-0.646E-06
CGA:   8    -0.171463883833E+03   -0.60134E-04   -0.60137E-04  1200   0.379E-04-0.197E-06
CGA:   9    -0.171463897528E+03   -0.13695E-04   -0.13695E-04  1200   0.790E-05 0.422E-08
CGA:  10    -0.171463900522E+03   -0.29946E-05   -0.29958E-05  1200   0.203E-05-0.311E-07
  75 F= -.17146390E+03 E0= -.17146390E+03  d E =-.765883E-03
       N       E                     dE             d eps       ncg     rms          ort
SDA:   1    -0.171240802928E+03    0.22309E+00    0.00000E+00  1200   0.662E+00 0.000E+00
CGA:   2    -0.171416932780E+03   -0.17613E+00   -0.17612E+00  1200   0.124E+00-0.476E-05
CGA:   3    -0.171456926154E+03   -0.39993E-01   -0.39993E-01  1200   0.198E-01 0.758E-05
CGA:   4    -0.171463290462E+03   -0.63643E-02   -0.63644E-02  1200   0.407E-02 0.568E-05
CGA:   5    -0.171464525573E+03   -0.12351E-02   -0.12352E-02  1200   0.117E-02 0.386E-05
CGA:   6    -0.171464948023E+03   -0.42245E-03   -0.42240E-03  1200   0.328E-03 0.207E-05
CGA:   7    -0.171465077816E+03   -0.12979E-03   -0.12975E-03  1200   0.879E-04 0.716E-06
CGA:   8    -0.171465109118E+03   -0.31302E-04   -0.31302E-04  1200   0.199E-04 0.276E-07
CGA:   9    -0.171465116360E+03   -0.72416E-05   -0.72453E-05  1200   0.421E-05-0.174E-06
CGA:  10    -0.171465117951E+03   -0.15915E-05   -0.15949E-05  1200   0.110E-05-0.863E-07
  76 F= -.17146512E+03 E0= -.17146512E+03  d E =-.198331E-02
       N       E                     dE             d eps       ncg     rms          ort
SDA:   1    -0.171444284548E+03    0.20832E-01    0.00000E+00  1200   0.642E-01 0.000E+00
CGA:   2    -0.171461152812E+03   -0.16868E-01   -0.16868E-01  1200   0.121E-01 0.347E-06
CGA:   3    -0.171464970338E+03   -0.38175E-02   -0.38175E-02  1200   0.214E-02-0.253E-05
CGA:   4    -0.171465598386E+03   -0.62805E-03   -0.62800E-03  1200   0.512E-03-0.851E-06
CGA:   5    -0.171465744384E+03   -0.14600E-03   -0.14591E-03  1200   0.122E-03-0.157E-05
CGA:   6    -0.171465791634E+03   -0.47250E-04   -0.47268E-04  1200   0.342E-04-0.368E-06
CGA:   7    -0.171465805217E+03   -0.13582E-04   -0.13592E-04  1200   0.984E-05-0.168E-06
CGA:   8    -0.171465808598E+03   -0.33815E-05   -0.33816E-05  1200   0.229E-05-0.135E-07
  77 F= -.17146581E+03 E0= -.17146581E+03  d E =-.690647E-03
       N       E                     dE             d eps       ncg     rms          ort
SDA:   1    -0.171451009951E+03    0.14795E-01    0.00000E+00  1200   0.447E-01 0.000E+00
CGA:   2    -0.171462753181E+03   -0.11743E-01   -0.11743E-01  1200   0.840E-02 0.103E-07
CGA:   3    -0.171465410206E+03   -0.26570E-02   -0.26570E-02  1200   0.149E-02-0.223E-05
CGA:   4    -0.171465847334E+03   -0.43713E-03   -0.43709E-03  1200   0.354E-03-0.749E-06
CGA:   5    -0.171465948454E+03   -0.10112E-03   -0.10105E-03  1200   0.854E-04-0.134E-05
CGA:   6    -0.171465981439E+03   -0.32984E-04   -0.33001E-04  1200   0.241E-04-0.322E-06
CGA:   7    -0.171465991017E+03   -0.95789E-05   -0.95882E-05  1200   0.695E-05-0.149E-06
CGA:   8    -0.171465993405E+03   -0.23874E-05   -0.23876E-05  1200   0.161E-05-0.136E-07
  78 F= -.17146599E+03 E0= -.17146599E+03  d E =-.875454E-03
       N       E                     dE             d eps       ncg     rms          ort
SDA:   1    -0.171463526081E+03    0.24649E-02    0.00000E+00  1200   0.794E-02 0.000E+00
CGA:   2    -0.171465637733E+03   -0.21117E-02   -0.21116E-02  1200   0.160E-02-0.631E-07
CGA:   3    -0.171466151813E+03   -0.51408E-03   -0.51405E-03  1200   0.272E-03-0.191E-05
CGA:   4    -0.171466230967E+03   -0.79154E-04   -0.79102E-04  1200   0.633E-04-0.111E-05
CGA:   5    -0.171466249343E+03   -0.18376E-04   -0.18333E-04  1200   0.152E-04-0.985E-06
CGA:   6    -0.171466255245E+03   -0.59012E-05   -0.59194E-05  1200   0.433E-05-0.293E-06
CGA:   7    -0.171466256987E+03   -0.17420E-05   -0.17518E-05  1200   0.122E-05-0.126E-06
CGA:   8    -0.171466257409E+03   -0.42222E-06   -0.42258E-06  1200   0.270E-06-0.161E-07
  79 F= -.17146626E+03 E0= -.17146626E+03  d E =-.264004E-03
       N       E                     dE             d eps       ncg     rms          ort
SDA:   1    -0.171456197217E+03    0.10060E-01    0.00000E+00  1200   0.298E-01 0.000E+00
CGA:   2    -0.171464131841E+03   -0.79346E-02   -0.79346E-02  1200   0.602E-02 0.669E-07
CGA:   3    -0.171466062582E+03   -0.19307E-02   -0.19307E-02  1200   0.102E-02-0.364E-05
CGA:   4    -0.171466359525E+03   -0.29694E-03   -0.29684E-03  1200   0.239E-03-0.214E-05
CGA:   5    -0.171466428391E+03   -0.68866E-04   -0.68779E-04  1200   0.562E-04-0.189E-05
CGA:   6    -0.171466450267E+03   -0.21877E-04   -0.21910E-04  1200   0.159E-04-0.548E-06
CGA:   7    -0.171466456672E+03   -0.64049E-05   -0.64224E-05  1200   0.444E-05-0.237E-06
CGA:   8    -0.171466458231E+03   -0.15585E-05   -0.15592E-05  1200   0.100E-05-0.363E-07
  80 F= -.17146646E+03 E0= -.17146646E+03  d E =-.464826E-03
       N       E                     dE             d eps       ncg     rms          ort
SDA:   1    -0.171463054451E+03    0.34022E-02    0.00000E+00  1200   0.113E-01 0.000E+00
CGA:   2    -0.171465965087E+03   -0.29106E-02   -0.29106E-02  1200   0.212E-02 0.573E-06
CGA:   3    -0.171466632124E+03   -0.66704E-03   -0.66696E-03  1200   0.396E-03-0.324E-05
CGA:   4    -0.171466741720E+03   -0.10960E-03   -0.10950E-03  1200   0.916E-04-0.151E-05
CGA:   5    -0.171466769051E+03   -0.27331E-04   -0.27276E-04  1200   0.204E-04-0.160E-05
CGA:   6    -0.171466777051E+03   -0.80006E-05   -0.80338E-05  1200   0.590E-05-0.475E-06
CGA:   7    -0.171466779416E+03   -0.23642E-05   -0.23874E-05  1200   0.183E-05-0.290E-06
CGA:   8    -0.171466780007E+03   -0.59150E-06   -0.59164E-06  1200   0.414E-06-0.235E-07
  81 F= -.17146678E+03 E0= -.17146678E+03  d E =-.321776E-03
       N       E                     dE             d eps       ncg     rms          ort
SDA:   1    -0.171433816265E+03    0.32963E-01    0.00000E+00  1200   0.101E+00 0.000E+00
CGA:   2    -0.171460002506E+03   -0.26186E-01   -0.26185E-01  1200   0.191E-01 0.154E-06
CGA:   3    -0.171465997340E+03   -0.59948E-02   -0.59947E-02  1200   0.357E-02-0.850E-05
CGA:   4    -0.171466982765E+03   -0.98542E-03   -0.98513E-03  1200   0.824E-03-0.464E-05
CGA:   5    -0.171467226965E+03   -0.24420E-03   -0.24403E-03  1200   0.179E-03-0.469E-05
CGA:   6    -0.171467297680E+03   -0.70715E-04   -0.70807E-04  1200   0.513E-04-0.136E-05
CGA:   7    -0.171467318179E+03   -0.20499E-04   -0.20559E-04  1200   0.156E-04-0.836E-06
CGA:   8    -0.171467323421E+03   -0.52422E-05   -0.52428E-05  1200   0.367E-05-0.101E-06
CGA:   9    -0.171467324746E+03   -0.13249E-05   -0.13266E-05  1200   0.768E-06-0.613E-07
  82 F= -.17146732E+03 E0= -.17146732E+03  d E =-.866516E-03
       N       E                     dE             d eps       ncg     rms          ort
SDA:   1    -0.171461126428E+03    0.61970E-02    0.00000E+00  1200   0.196E-01 0.000E+00
CGA:   2    -0.171466359153E+03   -0.52327E-02   -0.52326E-02  1200   0.378E-02-0.306E-06
CGA:   3    -0.171467556805E+03   -0.11977E-02   -0.11975E-02  1200   0.679E-03-0.578E-05
CGA:   4    -0.171467751824E+03   -0.19502E-03   -0.19487E-03  1200   0.162E-03-0.298E-05
CGA:   5    -0.171467799337E+03   -0.47513E-04   -0.47421E-04  1200   0.388E-04-0.230E-05
CGA:   6    -0.171467814554E+03   -0.15217E-04   -0.15278E-04  1200   0.111E-04-0.882E-06
CGA:   7    -0.171467819038E+03   -0.44835E-05   -0.45225E-05  1200   0.314E-05-0.465E-06
CGA:   8    -0.171467820094E+03   -0.10567E-05   -0.10572E-05  1200   0.725E-06-0.307E-07
  83 F= -.17146782E+03 E0= -.17146782E+03  d E =-.495348E-03
       N       E                     dE             d eps       ncg     rms          ort
SDA:   1    -0.171458967986E+03    0.88511E-02    0.00000E+00  1200   0.266E-01 0.000E+00
CGA:   2    -0.171466049555E+03   -0.70816E-02   -0.70814E-02  1200   0.511E-02-0.393E-06
CGA:   3    -0.171467669683E+03   -0.16201E-02   -0.16200E-02  1200   0.914E-03-0.664E-05
CGA:   4    -0.171467933044E+03   -0.26336E-03   -0.26319E-03  1200   0.218E-03-0.351E-05
CGA:   5    -0.171467996830E+03   -0.63786E-04   -0.63682E-04  1200   0.523E-04-0.265E-05
CGA:   6    -0.171468017313E+03   -0.20483E-04   -0.20551E-04  1200   0.148E-04-0.102E-05
CGA:   7    -0.171468023332E+03   -0.60188E-05   -0.60626E-05  1200   0.417E-05-0.534E-06
CGA:   8    -0.171468024755E+03   -0.14237E-05   -0.14244E-05  1200   0.969E-06-0.380E-07
  84 F= -.17146802E+03 E0= -.17146802E+03  d E =-.700009E-03
       N       E                     dE             d eps       ncg     rms          ort
SDA:   1    -0.171462964521E+03    0.50588E-02    0.00000E+00  1200   0.165E-01 0.000E+00
CGA:   2    -0.171467221707E+03   -0.42572E-02   -0.42571E-02  1200   0.295E-02-0.720E-07
CGA:   3    -0.171468146582E+03   -0.92487E-03   -0.92478E-03  1200   0.571E-03-0.442E-05
CGA:   4    -0.171468307210E+03   -0.16063E-03   -0.16050E-03  1200   0.138E-03-0.234E-05
[...]
SDA:   1    -0.171482003795E+03    0.49627E-03    0.00000E+00  1200   0.162E-02 0.000E+00
CGA:   2    -0.171482462309E+03   -0.45851E-03   -0.45845E-03  1200   0.241E-03-0.114E-05
CGA:   3    -0.171482535707E+03   -0.73398E-04   -0.73442E-04  1200   0.553E-04 0.131E-05
CGA:   4    -0.171482551233E+03   -0.15526E-04   -0.15557E-04  1200   0.123E-04 0.530E-06
CGA:   5    -0.171482555196E+03   -0.39637E-05   -0.39679E-05  1200   0.316E-05 0.273E-06
CGA:   6    -0.171482556395E+03   -0.11987E-05   -0.11942E-05  1200   0.948E-06 0.127E-06
CGA:   7    -0.171482556759E+03   -0.36379E-06   -0.36174E-06  1200   0.223E-06 0.690E-07
CGA:   8    -0.171482556854E+03   -0.95061E-07   -0.95463E-07  1200   0.696E-07-0.398E-08
 136 F= -.17148256E+03 E0= -.17148256E+03  d E =-.560864E-04
       N       E                     dE             d eps       ncg     rms          ort
SDA:   1    -0.171477649817E+03    0.49069E-02    0.00000E+00  1200   0.146E-01 0.000E+00
CGA:   2    -0.171481773917E+03   -0.41241E-02   -0.41240E-02  1200   0.217E-02-0.300E-05
CGA:   3    -0.171482437882E+03   -0.66396E-03   -0.66409E-03  1200   0.504E-03 0.393E-05
CGA:   4    -0.171482579251E+03   -0.14137E-03   -0.14146E-03  1200   0.113E-03 0.161E-05
CGA:   5    -0.171482615737E+03   -0.36486E-04   -0.36496E-04  1200   0.290E-04 0.864E-06
CGA:   6    -0.171482626698E+03   -0.10960E-04   -0.10944E-04  1200   0.878E-05 0.387E-06
CGA:   7    -0.171482630062E+03   -0.33642E-05   -0.33555E-05  1200   0.210E-05 0.206E-06
CGA:   8    -0.171482630891E+03   -0.82905E-06   -0.83030E-06  1200   0.576E-06-0.219E-07
 137 F= -.17148263E+03 E0= -.17148263E+03  d E =-.130123E-03
       N       E                     dE             d eps       ncg     rms          ort
SDA:   1    -0.171482100410E+03    0.52965E-03    0.00000E+00  1200   0.177E-02 0.000E+00
CGA:   2    -0.171482597085E+03   -0.49667E-03   -0.49661E-03  1200   0.253E-03-0.123E-05
CGA:   3    -0.171482676174E+03   -0.79089E-04   -0.79129E-04  1200   0.531E-04 0.168E-05
CGA:   4    -0.171482691860E+03   -0.15686E-04   -0.15711E-04  1200   0.119E-04 0.604E-06
CGA:   5    -0.171482695639E+03   -0.37784E-05   -0.37856E-05  1200   0.328E-05 0.370E-06
CGA:   6    -0.171482696860E+03   -0.12218E-05   -0.12174E-05  1200   0.991E-06 0.163E-06
CGA:   7    -0.171482697238E+03   -0.37757E-06   -0.37538E-06  1200   0.227E-06 0.842E-07
CGA:   8    -0.171482697336E+03   -0.97803E-07   -0.98015E-07  1200   0.641E-07-0.732E-09
 138 F= -.17148270E+03 E0= -.17148270E+03  d E =-.664450E-04
       N       E                     dE             d eps       ncg     rms          ort
SDA:   1    -0.171477487350E+03    0.52099E-02    0.00000E+00  1200   0.159E-01 0.000E+00
CGA:   2    -0.171481952764E+03   -0.44654E-02   -0.44653E-02  1200   0.228E-02-0.315E-05
CGA:   3    -0.171482668241E+03   -0.71548E-03   -0.71558E-03  1200   0.480E-03 0.508E-05
CGA:   4    -0.171482810505E+03   -0.14226E-03   -0.14233E-03  1200   0.109E-03 0.182E-05
CGA:   5    -0.171482845227E+03   -0.34722E-04   -0.34740E-04  1200   0.303E-04 0.116E-05
CGA:   6    -0.171482856412E+03   -0.11185E-04   -0.11169E-04  1200   0.923E-05 0.483E-06
CGA:   7    -0.171482859914E+03   -0.35014E-05   -0.34918E-05  1200   0.214E-05 0.247E-06
CGA:   8    -0.171482860767E+03   -0.85336E-06   -0.85450E-06  1200   0.535E-06-0.187E-07
 139 F= -.17148286E+03 E0= -.17148286E+03  d E =-.229876E-03
       N       E                     dE             d eps       ncg     rms          ort
SDA:   1    -0.171461541816E+03    0.21318E-01    0.00000E+00  1200   0.636E-01 0.000E+00
CGA:   2    -0.171479397970E+03   -0.17856E-01   -0.17856E-01  1200   0.911E-02-0.334E-05
CGA:   3    -0.171482262819E+03   -0.28648E-02   -0.28650E-02  1200   0.192E-02 0.990E-05
CGA:   4    -0.171482833013E+03   -0.57019E-03   -0.57034E-03  1200   0.438E-03 0.375E-05
CGA:   5    -0.171482972467E+03   -0.13945E-03   -0.13949E-03  1200   0.122E-03 0.240E-05
CGA:   6    -0.171483017506E+03   -0.45040E-04   -0.45006E-04  1200   0.374E-04 0.993E-06
CGA:   7    -0.171483031678E+03   -0.14172E-04   -0.14152E-04  1200   0.875E-05 0.488E-06
CGA:   8    -0.171483035084E+03   -0.34055E-05   -0.34081E-05  1200   0.212E-05-0.489E-07
 140 F= -.17148304E+03 E0= -.17148304E+03  d E =-.404193E-03
       N       E                     dE             d eps       ncg     rms          ort
SDA:   1    -0.171479565412E+03    0.34663E-02    0.00000E+00  1200   0.103E-01 0.000E+00
CGA:   2    -0.171482461945E+03   -0.28965E-02   -0.28964E-02  1200   0.147E-02-0.273E-05
CGA:   3    -0.171482925201E+03   -0.46326E-03   -0.46334E-03  1200   0.309E-03 0.405E-05
CGA:   4    -0.171483017121E+03   -0.91920E-04   -0.91976E-04  1200   0.697E-04 0.148E-05
CGA:   5    -0.171483039372E+03   -0.22251E-04   -0.22265E-04  1200   0.196E-04 0.914E-06
CGA:   6    -0.171483046616E+03   -0.72437E-05   -0.72312E-05  1200   0.601E-05 0.390E-06
CGA:   7    -0.171483048893E+03   -0.22778E-05   -0.22706E-05  1200   0.139E-05 0.201E-06
CGA:   8    -0.171483049454E+03   -0.56064E-06   -0.56150E-06  1200   0.350E-06-0.137E-07
 141 F= -.17148305E+03 E0= -.17148305E+03  d E =-.418563E-03
       N       E                     dE             d eps       ncg     rms          ort
SDA:   1    -0.171478270806E+03    0.47781E-02    0.00000E+00  1200   0.144E-01 0.000E+00
CGA:   2    -0.171482318456E+03   -0.40477E-02   -0.40475E-02  1200   0.213E-02-0.366E-05
CGA:   3    -0.171482986021E+03   -0.66756E-03   -0.66765E-03  1200   0.455E-03 0.390E-05
CGA:   4    -0.171483120348E+03   -0.13433E-03   -0.13438E-03  1200   0.103E-03 0.136E-05
CGA:   5    -0.171483152955E+03   -0.32607E-04   -0.32623E-04  1200   0.286E-04 0.912E-06
CGA:   6    -0.171483163519E+03   -0.10563E-04   -0.10553E-04  1200   0.859E-05 0.311E-06
CGA:   7    -0.171483166820E+03   -0.33008E-05   -0.32922E-05  1200   0.199E-05 0.191E-06
CGA:   8    -0.171483167614E+03   -0.79482E-06   -0.79588E-06  1200   0.501E-06-0.180E-07
 142 F= -.17148317E+03 E0= -.17148317E+03  d E =-.118160E-03
       N       E                     dE             d eps       ncg     rms          ort
SDA:   1    -0.171475376184E+03    0.77906E-02    0.00000E+00  1200   0.230E-01 0.000E+00
CGA:   2    -0.171481859918E+03   -0.64837E-02   -0.64836E-02  1200   0.342E-02-0.432E-05
CGA:   3    -0.171482929734E+03   -0.10698E-02   -0.10699E-02  1200   0.730E-03 0.491E-05
CGA:   4    -0.171483145078E+03   -0.21534E-03   -0.21541E-03  1200   0.166E-03 0.173E-05
CGA:   5    -0.171483197388E+03   -0.52310E-04   -0.52330E-04  1200   0.459E-04 0.117E-05
CGA:   6    -0.171483214344E+03   -0.16957E-04   -0.16943E-04  1200   0.138E-04 0.395E-06
CGA:   7    -0.171483219656E+03   -0.53112E-05   -0.53001E-05  1200   0.322E-05 0.240E-06
CGA:   8    -0.171483220928E+03   -0.12722E-05   -0.12736E-05  1200   0.798E-06-0.248E-07
 143 F= -.17148322E+03 E0= -.17148322E+03  d E =-.171474E-03
       N       E                     dE             d eps       ncg     rms          ort
SDA:   1    -0.171479626382E+03    0.35933E-02    0.00000E+00  1200   0.109E-01 0.000E+00
CGA:   2    -0.171482671614E+03   -0.30452E-02   -0.30451E-02  1200   0.167E-02-0.370E-05
CGA:   3    -0.171483177768E+03   -0.50615E-03   -0.50625E-03  1200   0.379E-03 0.286E-05
CGA:   4    -0.171483286391E+03   -0.10862E-03   -0.10867E-03  1200   0.854E-04 0.100E-05
CGA:   5    -0.171483313563E+03   -0.27172E-04   -0.27182E-04  1200   0.226E-04 0.701E-06
CGA:   6    -0.171483322148E+03   -0.85843E-05   -0.85763E-05  1200   0.669E-05 0.180E-06
CGA:   7    -0.171483324745E+03   -0.25969E-05   -0.25895E-05  1200   0.158E-05 0.148E-06
CGA:   8    -0.171483325360E+03   -0.61501E-06   -0.61595E-06  1200   0.437E-06-0.187E-07
 144 F= -.17148333E+03 E0= -.17148333E+03  d E =-.104432E-03
       N       E                     dE             d eps       ncg     rms          ort
SDA:   1    -0.171477663487E+03    0.56613E-02    0.00000E+00  1200   0.168E-01 0.000E+00
CGA:   2    -0.171482363766E+03   -0.47003E-02   -0.47001E-02  1200   0.258E-02-0.442E-05
CGA:   3    -0.171483145639E+03   -0.78187E-03   -0.78198E-03  1200   0.587E-03 0.356E-05
CGA:   4    -0.171483313635E+03   -0.16800E-03   -0.16806E-03  1200   0.132E-03 0.125E-05
CGA:   5    -0.171483355769E+03   -0.42134E-04   -0.42146E-04  1200   0.350E-04 0.889E-06
CGA:   6    -0.171483369022E+03   -0.13254E-04   -0.13244E-04  1200   0.103E-04 0.224E-06
CGA:   7    -0.171483373036E+03   -0.40136E-05   -0.40041E-05  1200   0.245E-05 0.183E-06
CGA:   8    -0.171483373982E+03   -0.94593E-06   -0.94712E-06  1200   0.670E-06-0.245E-07
 145 F= -.17148337E+03 E0= -.17148337E+03  d E =-.153054E-03
       N       E                     dE             d eps       ncg     rms          ort
SDA:   1    -0.171483069972E+03    0.30306E-03    0.00000E+00  1200   0.989E-03 0.000E+00
CGA:   2    -0.171483347667E+03   -0.27769E-03   -0.27765E-03  1200   0.161E-03-0.869E-06
CGA:   3    -0.171483395381E+03   -0.47714E-04   -0.47754E-04  1200   0.359E-04 0.105E-05
CGA:   4    -0.171483405443E+03   -0.10062E-04   -0.10089E-04  1200   0.776E-05 0.500E-06
CGA:   5    -0.171483407839E+03   -0.23955E-05   -0.24022E-05  1200   0.195E-05 0.269E-06
CGA:   6    -0.171483408586E+03   -0.74731E-06   -0.74323E-06  1200   0.572E-06 0.107E-06
CGA:   7    -0.171483408809E+03   -0.22244E-06   -0.22027E-06  1200   0.144E-06 0.655E-07
CGA:   8    -0.171483408869E+03   -0.59849E-07   -0.59705E-07  1200   0.446E-07 0.593E-08
 146 F= -.17148341E+03 E0= -.17148341E+03  d E =-.348865E-04
       N       E                     dE             d eps       ncg     rms          ort
SDA:   1    -0.171482950767E+03    0.45804E-03    0.00000E+00  1200   0.138E-02 0.000E+00
CGA:   2    -0.171483338151E+03   -0.38738E-03   -0.38733E-03  1200   0.225E-03-0.105E-05
CGA:   3    -0.171483404882E+03   -0.66731E-04   -0.66777E-04  1200   0.502E-04 0.127E-05
CGA:   4    -0.171483418989E+03   -0.14107E-04   -0.14137E-04  1200   0.109E-04 0.581E-06
CGA:   5    -0.171483422366E+03   -0.33769E-05   -0.33844E-05  1200   0.273E-05 0.326E-06
CGA:   6    -0.171483423406E+03   -0.10393E-05   -0.10345E-05  1200   0.798E-06 0.120E-06
CGA:   7    -0.171483423715E+03   -0.30991E-06   -0.30700E-06  1200   0.201E-06 0.763E-07
CGA:   8    -0.171483423797E+03   -0.81714E-07   -0.81521E-07  1200   0.608E-07 0.631E-08
 147 F= -.17148342E+03 E0= -.17148342E+03  d E =-.498152E-04
       N       E                     dE             d eps       ncg     rms          ort
SDA:   1    -0.171483106847E+03    0.31687E-03    0.00000E+00  1200   0.105E-02 0.000E+00
CGA:   2    -0.171483394463E+03   -0.28762E-03   -0.28758E-03  1200   0.164E-03-0.686E-06
CGA:   3    -0.171483444350E+03   -0.49887E-04   -0.49922E-04  1200   0.339E-04 0.124E-05
CGA:   4    -0.171483454222E+03   -0.98721E-05   -0.98971E-05  1200   0.772E-05 0.620E-06
CGA:   5    -0.171483456533E+03   -0.23109E-05   -0.23212E-05  1200   0.200E-05 0.311E-06
CGA:   6    -0.171483457285E+03   -0.75238E-06   -0.74772E-06  1200   0.559E-06 0.144E-06
CGA:   7    -0.171483457504E+03   -0.21920E-06   -0.21671E-06  1200   0.144E-06 0.774E-07
CGA:   8    -0.171483457563E+03   -0.59070E-07   -0.58923E-07  1200   0.447E-07 0.870E-08
 148 F= -.17148346E+03 E0= -.17148346E+03  d E =-.337662E-04
       N       E                     dE             d eps       ncg     rms          ort
SDA:   1    -0.171483025068E+03    0.43244E-03    0.00000E+00  1200   0.133E-02 0.000E+00
CGA:   2    -0.171483390647E+03   -0.36558E-03   -0.36554E-03  1200   0.209E-03-0.772E-06
CGA:   3    -0.171483454138E+03   -0.63490E-04   -0.63529E-04  1200   0.431E-04 0.141E-05
CGA:   4    -0.171483466722E+03   -0.12584E-04   -0.12612E-04  1200   0.981E-05 0.701E-06
CGA:   5    -0.171483469669E+03   -0.29466E-05   -0.29576E-05  1200   0.255E-05 0.352E-06
CGA:   6    -0.171483470629E+03   -0.96059E-06   -0.95498E-06  1200   0.717E-06 0.162E-06
CGA:   7    -0.171483470911E+03   -0.28184E-06   -0.27868E-06  1200   0.183E-06 0.875E-07
CGA:   8    -0.171483470986E+03   -0.74740E-07   -0.74588E-07  1200   0.566E-07 0.811E-08
 149 F= -.17148347E+03 E0= -.17148347E+03  d E =-.471887E-04
       N       E                     dE             d eps       ncg     rms          ort
SDA:   1    -0.171483328094E+03    0.14282E-03    0.00000E+00  1200   0.488E-03 0.000E+00
CGA:   2    -0.171483460096E+03   -0.13200E-03   -0.13196E-03  1200   0.891E-04-0.594E-06
CGA:   3    -0.171483487367E+03   -0.27271E-04   -0.27286E-04  1200   0.171E-04 0.603E-06
CGA:   4    -0.171483492381E+03   -0.50135E-05   -0.50222E-05  1200   0.386E-05 0.226E-06
CGA:   5    -0.171483493494E+03   -0.11127E-05   -0.11180E-05  1200   0.952E-06 0.125E-06
CGA:   6    -0.171483493867E+03   -0.37368E-06   -0.37184E-06  1200   0.268E-06 0.367E-07
CGA:   7    -0.171483493968E+03   -0.10114E-06   -0.10009E-06  1200   0.683E-07 0.359E-07
CGA:   8    -0.171483493996E+03   -0.27395E-07   -0.27379E-07  1200   0.197E-07 0.612E-08
 150 F= -.17148349E+03 E0= -.17148349E+03  d E =-.230099E-04
       N       E                     dE             d eps       ncg     rms          ort
SDA:   1    -0.171482037813E+03    0.14562E-02    0.00000E+00  1200   0.438E-02 0.000E+00
CGA:   2    -0.171483223723E+03   -0.11859E-02   -0.11858E-02  1200   0.800E-03-0.170E-05
CGA:   3    -0.171483470122E+03   -0.24640E-03   -0.24644E-03  1200   0.155E-03 0.182E-05
CGA:   4    -0.171483515608E+03   -0.45486E-04   -0.45511E-04  1200   0.352E-04 0.682E-06
CGA:   5    -0.171483525855E+03   -0.10247E-04   -0.10262E-04  1200   0.882E-05 0.386E-06
CGA:   6    -0.171483529258E+03   -0.34027E-05   -0.33969E-05  1200   0.247E-05 0.107E-06
CGA:   7    -0.171483530239E+03   -0.98123E-06   -0.97454E-06  1200   0.658E-06 0.112E-06
CGA:   8    -0.171483530488E+03   -0.24856E-06   -0.24836E-06  1200   0.178E-06 0.950E-08
 151 F= -.17148353E+03 E0= -.17148353E+03  d E =-.595017E-04
       N       E                     dE             d eps       ncg     rms          ort
SDA:   1    -0.171483422488E+03    0.10775E-03    0.00000E+00  1200   0.389E-03 0.000E+00
CGA:   2    -0.171483527295E+03   -0.10481E-03   -0.10478E-03  1200   0.702E-04-0.483E-06
CGA:   3    -0.171483548733E+03   -0.21438E-04   -0.21448E-04  1200   0.132E-04 0.380E-06
CGA:   4    -0.171483552631E+03   -0.38976E-05   -0.39041E-05  1200   0.303E-05 0.176E-06
CGA:   5    -0.171483553504E+03   -0.87273E-06   -0.87665E-06  1200   0.758E-06 0.900E-07
CGA:   6    -0.171483553803E+03   -0.29941E-06   -0.29841E-06  1200   0.223E-06 0.195E-07
CGA:   7    -0.171483553888E+03   -0.85382E-07   -0.84676E-07  1200   0.587E-07 0.196E-07
CGA:   8    -0.171483553911E+03   -0.23102E-07   -0.23131E-07  1200   0.164E-07 0.220E-08
 152 F= -.17148355E+03 E0= -.17148355E+03  d E =-.234238E-04
       N       E                     dE             d eps       ncg     rms          ort
SDA:   1    -0.171483128180E+03    0.42571E-03    0.00000E+00  1200   0.131E-02 0.000E+00
CGA:   2    -0.171483480834E+03   -0.35265E-03   -0.35260E-03  1200   0.236E-03-0.888E-06
CGA:   3    -0.171483553253E+03   -0.72419E-04   -0.72438E-04  1200   0.449E-04 0.700E-06
CGA:   4    -0.171483566476E+03   -0.13223E-04   -0.13235E-04  1200   0.104E-04 0.315E-06
CGA:   5    -0.171483569476E+03   -0.29991E-05   -0.30064E-05  1200   0.258E-05 0.169E-06
CGA:   6    -0.171483570480E+03   -0.10047E-05   -0.10032E-05  1200   0.750E-06 0.307E-07
CGA:   7    -0.171483570773E+03   -0.29253E-06   -0.29081E-06  1200   0.203E-06 0.345E-07
CGA:   8    -0.171483570849E+03   -0.76610E-07   -0.76648E-07  1200   0.545E-07 0.237E-08
 153 F= -.17148357E+03 E0= -.17148357E+03  d E =-.403617E-04
       N       E                     dE             d eps       ncg     rms          ort
SDA:   1    -0.171483417770E+03    0.15300E-03    0.00000E+00  1200   0.529E-03 0.000E+00
CGA:   2    -0.171483555549E+03   -0.13778E-03   -0.13774E-03  1200   0.880E-04-0.519E-06
CGA:   3    -0.171483582999E+03   -0.27450E-04   -0.27457E-04  1200   0.148E-04 0.329E-06
CGA:   4    -0.171483587671E+03   -0.46715E-05   -0.46732E-05  1200   0.346E-05 0.941E-07
CGA:   5    -0.171483588651E+03   -0.97986E-06   -0.98535E-06  1200   0.953E-06 0.112E-06
CGA:   6    -0.171483589024E+03   -0.37335E-06   -0.37362E-06  1200   0.293E-06-0.272E-08
CGA:   7    -0.171483589135E+03   -0.11072E-06   -0.11059E-06  1200   0.807E-07 0.523E-08
CGA:   8    -0.171483589163E+03   -0.28660E-07   -0.28735E-07  1200   0.199E-07-0.320E-09
 154 F= -.17148359E+03 E0= -.17148359E+03  d E =-.183141E-04
       N       E                     dE             d eps       ncg     rms          ort
SDA:   1    -0.171482074380E+03    0.15148E-02    0.00000E+00  1200   0.476E-02 0.000E+00
CGA:   2    -0.171483312398E+03   -0.12380E-02   -0.12379E-02  1200   0.790E-03-0.149E-05
CGA:   3    -0.171483559881E+03   -0.24748E-03   -0.24750E-03  1200   0.133E-03 0.989E-06
CGA:   4    -0.171483602045E+03   -0.42164E-04   -0.42169E-04  1200   0.314E-04 0.281E-06
CGA:   5    -0.171483611086E+03   -0.90404E-05   -0.90559E-05  1200   0.886E-05 0.353E-06
CGA:   6    -0.171483614416E+03   -0.33302E-05   -0.33308E-05  1200   0.260E-05-0.125E-07
CGA:   7    -0.171483615413E+03   -0.99705E-06   -0.99642E-06  1200   0.729E-06 0.133E-07
CGA:   8    -0.171483615667E+03   -0.25395E-06   -0.25407E-06  1200   0.176E-06-0.136E-08
 155 F= -.17148362E+03 E0= -.17148362E+03  d E =-.448175E-04
       N       E                     dE             d eps       ncg     rms          ort
SDA:   1    -0.171483114811E+03    0.50060E-03    0.00000E+00  1200   0.155E-02 0.000E+00
CGA:   2    -0.171483528422E+03   -0.41361E-03   -0.41358E-03  1200   0.298E-03-0.436E-06
CGA:   3    -0.171483623035E+03   -0.94613E-04   -0.94625E-04  1200   0.485E-04 0.783E-06
CGA:   4    -0.171483637492E+03   -0.14457E-04   -0.14467E-04  1200   0.105E-04 0.287E-06
CGA:   5    -0.171483640487E+03   -0.29948E-05   -0.29986E-05  1200   0.257E-05 0.815E-07
CGA:   6    -0.171483641428E+03   -0.94124E-06   -0.93911E-06  1200   0.724E-06 0.642E-07
CGA:   7    -0.171483641707E+03   -0.27890E-06   -0.27668E-06  1200   0.202E-06 0.549E-07
CGA:   8    -0.171483641787E+03   -0.80167E-07   -0.79892E-07  1200   0.495E-07 0.101E-07
 156 F= -.17148364E+03 E0= -.17148364E+03  d E =-.261200E-04
       N       E                     dE             d eps       ncg     rms          ort
SDA:   1    -0.171483632800E+03    0.89067E-05    0.00000E+00  1200   0.276E-04 0.000E+00
CGA:   2    -0.171483640205E+03   -0.74051E-05   -0.74012E-05  1200   0.535E-05-0.567E-07
CGA:   3    -0.171483641869E+03   -0.16641E-05   -0.16665E-05  1200   0.836E-06 0.105E-06
CGA:   4    -0.171483642119E+03   -0.24945E-06   -0.25098E-06  1200   0.169E-06 0.367E-07
CGA:   5    -0.171483642168E+03   -0.49460E-07   -0.50040E-07  1200   0.425E-07 0.114E-07
CGA:   6    -0.171483642183E+03   -0.14391E-07   -0.14535E-07  1200   0.113E-07 0.843E-08
CGA:   7    -0.171483642186E+03   -0.30550E-08   -0.35188E-08  1200   0.387E-08 0.556E-08
CGA:   8    -0.171483642187E+03   -0.98680E-09   -0.13168E-08  1200   0.147E-08 0.261E-08
 157 F= -.17148364E+03 E0= -.17148364E+03  d E =-.265197E-04
       N       E                     dE             d eps       ncg     rms          ort
SDA:   1    -0.171483441122E+03    0.20106E-03    0.00000E+00  1200   0.672E-03 0.000E+00
CGA:   2    -0.171483613700E+03   -0.17258E-03   -0.17257E-03  1200   0.120E-03-0.288E-07
CGA:   3    -0.171483652113E+03   -0.38413E-04   -0.38433E-04  1200   0.197E-04 0.513E-06
CGA:   4    -0.171483657949E+03   -0.58358E-05   -0.58503E-05  1200   0.481E-05 0.231E-06
CGA:   5    -0.171483659344E+03   -0.13951E-05   -0.13965E-05  1200   0.117E-05 0.202E-07
CGA:   6    -0.171483659779E+03   -0.43536E-06   -0.43436E-06  1200   0.309E-06 0.621E-07
CGA:   7    -0.171483659894E+03   -0.11460E-06   -0.11471E-06  1200   0.815E-07 0.438E-07
CGA:   8    -0.171483659926E+03   -0.32737E-07   -0.32822E-07  1200   0.212E-07 0.924E-08
 158 F= -.17148366E+03 E0= -.17148366E+03  d E =-.177399E-04
