<?xml version="1.0" encoding="ISO-8859-1"?>
<modeling>
 <generator>
  <i name="program" type="string">vasp </i>
  <i name="version" type="string">6.3.1  </i>
  <i name="subversion" type="string">04May22 (build May 25 2022 13:42:54) complex                          parallel </i>
  <i name="platform" type="string">HPECrayEX_GCC </i>
  <i name="date" type="string">2022 09 20 </i>
  <i name="time" type="string">14:54:13 </i>
 </generator>
 <incar>
  <i type="string" name="SYSTEM">tetra-FASnI3</i>
  <i type="int" name="ISTART">     0</i>
  <i type="string" name="PREC">Accurate</i>
  <i type="string" name="ALGO">ALL</i>
  <i type="int" name="ISPIN">     1</i>
  <i type="int" name="NELM">   200</i>
  <i type="int" name="NELMIN">     8</i>
  <i type="int" name="IBRION">     2</i>
  <i name="EDIFF">      0.00000500</i>
  <i name="EDIFFG">     -0.01000000</i>
  <i type="int" name="NSW">  1000</i>
  <i type="int" name="ISIF">     3</i>
  <i type="int" name="ISYM">     0</i>
  <i name="ENCUT">   1000.00000000</i>
  <i type="logical" name="LREAL"> F  </i>
  <i type="int" name="ISMEAR">     0</i>
  <i name="SIGMA">      0.05000000</i>
  <i type="logical" name="LWAVE"> F  </i>
  <i type="logical" name="LCHARG"> F  </i>
  <i type="logical" name="LASPH"> T  </i>
  <i type="string" name="GGA">MK</i>
  <i name="PARAM1">      0.12340000</i>
  <i name="PARAM2">      1.00000000</i>
  <i type="logical" name="LUSE_VDW"> T  </i>
  <i name="AGGAC">      0.00000000</i>
 </incar>
 <primitive_cell>
  <structure name="primitive_cell" >
   <crystal>
    <varray name="basis" >
     <v>       8.88200000       0.00000000       0.00000000 </v>
     <v>       0.00000000       8.88200000       0.00000000 </v>
     <v>       0.00000000       0.00000000      12.54000000 </v>
    </varray>
    <i name="volume">    989.27964696 </i>
    <varray name="rec_basis" >
     <v>       0.11258726       0.00000000       0.00000000 </v>
     <v>       0.00000000       0.11258726       0.00000000 </v>
     <v>       0.00000000       0.00000000       0.07974482 </v>
    </varray>
   </crystal>
   <varray name="positions" >
    <v>       0.99707273       0.50709300       0.01913876 </v>
    <v>       0.50619230       0.01035803       0.01913876 </v>
    <v>       0.99707273       0.50709300       0.51913876 </v>
    <v>       0.50619230       0.01035803       0.51913876 </v>
    <v>       0.89157847       0.60087818       0.88867624 </v>
    <v>       0.10144112       0.40666517       0.89106858 </v>
    <v>       0.16358928       0.35239811       0.01818182 </v>
    <v>       0.83066877       0.66257600       0.01419458 </v>
    <v>       0.99729791       0.50956992       0.10709729 </v>
    <v>       0.41240712       0.90486377       0.88867624 </v>
    <v>       0.60662013       0.11472641       0.89106858 </v>
    <v>       0.66088719       0.17687458       0.01818182 </v>
    <v>       0.35070930       0.84395406       0.01419458 </v>
    <v>       0.50371538       0.01058320       0.10709729 </v>
    <v>       0.89157847       0.60087818       0.38867624 </v>
    <v>       0.10144112       0.40666517       0.39106858 </v>
    <v>       0.16358928       0.35239811       0.51818182 </v>
    <v>       0.83066877       0.66257600       0.51419458 </v>
    <v>       0.99729791       0.50956992       0.60709729 </v>
    <v>       0.41240712       0.90486377       0.38867624 </v>
    <v>       0.60662013       0.11472641       0.39106858 </v>
    <v>       0.66088719       0.17687458       0.51818182 </v>
    <v>       0.35070930       0.84395406       0.51419458 </v>
    <v>       0.50371538       0.01058320       0.60709729 </v>
    <v>       0.27775276       0.22224724       0.25000000 </v>
    <v>       0.72235983       0.77775276       0.25000000 </v>
    <v>       0.77775276       0.27775276       0.25000000 </v>
    <v>       0.22224724       0.72235983       0.25000000 </v>
    <v>       0.00000000       0.00000000       0.00000000 </v>
    <v>       0.50000000       0.50000000       0.00000000 </v>
    <v>       0.27775276       0.22224724       0.75000000 </v>
    <v>       0.72235983       0.77775276       0.75000000 </v>
    <v>       0.77775276       0.27775276       0.75000000 </v>
    <v>       0.22224724       0.72235983       0.75000000 </v>
    <v>       0.00000000       0.00000000       0.50000000 </v>
    <v>       0.50000000       0.50000000       0.50000000 </v>
    <v>       0.09412295       0.41859941       0.97208931 </v>
    <v>       0.89957217       0.59288449       0.97001595 </v>
    <v>       0.59468588       0.10740824       0.97208931 </v>
    <v>       0.42040081       0.91285746       0.97001595 </v>
    <v>       0.09412295       0.41859941       0.47208931 </v>
    <v>       0.89957217       0.59288449       0.47001595 </v>
    <v>       0.59468588       0.10740824       0.47208931 </v>
    <v>       0.42040081       0.91285746       0.47001595 </v>
    <v>       0.00000000       0.00000000       0.25000000 </v>
    <v>       0.50000000       0.50000000       0.25000000 </v>
    <v>       0.00000000       0.00000000       0.75000000 </v>
    <v>       0.50000000       0.50000000       0.75000000 </v>
   </varray>
  </structure>
  <varray name="primitive_index" >
   <v type="int" >        1 </v>
   <v type="int" >        2 </v>
   <v type="int" >        3 </v>
   <v type="int" >        4 </v>
   <v type="int" >        5 </v>
   <v type="int" >        6 </v>
   <v type="int" >        7 </v>
   <v type="int" >        8 </v>
   <v type="int" >        9 </v>
   <v type="int" >       10 </v>
   <v type="int" >       11 </v>
   <v type="int" >       12 </v>
   <v type="int" >       13 </v>
   <v type="int" >       14 </v>
   <v type="int" >       15 </v>
   <v type="int" >       16 </v>
   <v type="int" >       17 </v>
   <v type="int" >       18 </v>
   <v type="int" >       19 </v>
   <v type="int" >       20 </v>
   <v type="int" >       21 </v>
   <v type="int" >       22 </v>
   <v type="int" >       23 </v>
   <v type="int" >       24 </v>
   <v type="int" >       25 </v>
   <v type="int" >       26 </v>
   <v type="int" >       27 </v>
   <v type="int" >       28 </v>
   <v type="int" >       29 </v>
   <v type="int" >       30 </v>
   <v type="int" >       31 </v>
   <v type="int" >       32 </v>
   <v type="int" >       33 </v>
   <v type="int" >       34 </v>
   <v type="int" >       35 </v>
   <v type="int" >       36 </v>
   <v type="int" >       37 </v>
   <v type="int" >       38 </v>
   <v type="int" >       39 </v>
   <v type="int" >       40 </v>
   <v type="int" >       41 </v>
   <v type="int" >       42 </v>
   <v type="int" >       43 </v>
   <v type="int" >       44 </v>
   <v type="int" >       45 </v>
   <v type="int" >       46 </v>
   <v type="int" >       47 </v>
   <v type="int" >       48 </v>
  </varray>
 </primitive_cell>
 <kpoints>
  <generation param="Gamma">
   <v type="int" name="divisions">       3        3        2 </v>
   <v name="usershift">      0.00000000       0.00000000       0.00000000 </v>
   <v name="genvec1">      0.33333333       0.00000000       0.00000000 </v>
   <v name="genvec2">      0.00000000       0.33333333       0.00000000 </v>
   <v name="genvec3">      0.00000000       0.00000000       0.50000000 </v>
   <v name="shift">      0.00000000       0.00000000       0.00000000 </v>
  </generation>
  <varray name="kpointlist" >
   <v>       0.00000000       0.00000000       0.00000000 </v>
   <v>       0.33333333       0.00000000       0.00000000 </v>
   <v>       0.00000000       0.33333333       0.00000000 </v>
   <v>       0.33333333       0.33333333       0.00000000 </v>
   <v>      -0.33333333       0.33333333       0.00000000 </v>
   <v>       0.00000000       0.00000000       0.50000000 </v>
   <v>       0.33333333       0.00000000       0.50000000 </v>
   <v>       0.00000000       0.33333333       0.50000000 </v>
   <v>       0.33333333       0.33333333       0.50000000 </v>
   <v>      -0.33333333       0.33333333       0.50000000 </v>
  </varray>
  <varray name="weights" >
   <v>       0.05555556 </v>
   <v>       0.11111111 </v>
   <v>       0.11111111 </v>
   <v>       0.11111111 </v>
   <v>       0.11111111 </v>
   <v>       0.05555556 </v>
   <v>       0.11111111 </v>
   <v>       0.11111111 </v>
   <v>       0.11111111 </v>
   <v>       0.11111111 </v>
  </varray>
 </kpoints>
 <parameters>
  <separator name="general" >
   <i type="string" name="SYSTEM">tetra-FASnI3</i>
   <i type="logical" name="LCOMPAT"> F  </i>
  </separator>
  <separator name="electronic" >
   <i type="string" name="PREC">accura</i>
   <i name="ENMAX">   1000.00000000</i>
   <i name="ENAUG">    644.87300000</i>
   <i name="EDIFF">      0.00000500</i>
   <i type="int" name="IALGO">    58</i>
   <i type="int" name="IWAVPR">    11</i>
   <i type="int" name="NBANDS">   120</i>
   <i type="int" name="NBANDSLOW">    -1</i>
   <i type="int" name="NBANDSHIGH">    -1</i>
   <i name="NELECT">    176.00000000</i>
   <i type="int" name="TURBO">     0</i>
   <i type="int" name="IRESTART">     0</i>
   <i type="int" name="NREBOOT">     0</i>
   <i type="int" name="NMIN">     0</i>
   <i name="EREF">      0.00000000</i>
   <separator name="electronic smearing" >
    <i type="int" name="ISMEAR">     0</i>
    <i name="SIGMA">      0.05000000</i>
    <i name="KSPACING">      0.50000000</i>
    <i type="logical" name="KGAMMA"> T  </i>
    <i type="logical" name="KBLOWUP"> T  </i>
   </separator>
   <separator name="electronic projectors" >
    <i type="logical" name="LREAL"> F  </i>
    <v name="ROPT">      0.00000000      0.00000000      0.00000000      0.00000000      0.00000000</v>
    <i type="int" name="LMAXPAW">  -100</i>
    <i type="int" name="LMAXMIX">     2</i>
    <i type="logical" name="NLSPLINE"> F  </i>
   </separator>
   <separator name="electronic startup" >
    <i type="int" name="ISTART">     0</i>
    <i type="int" name="ICHARG">     2</i>
    <i type="int" name="INIWAV">     1</i>
   </separator>
   <separator name="electronic spin" >
    <i type="int" name="ISPIN">     1</i>
    <i type="logical" name="LNONCOLLINEAR"> F  </i>
    <v name="MAGMOM">      1.00000000      1.00000000      1.00000000      1.00000000      1.00000000      1.00000000      1.00000000      1.00000000      1.00000000      1.00000000      1.00000000      1.00000000      1.00000000      1.00000000      1.00000000      1.00000000      1.00000000      1.00000000      1.00000000      1.00000000
      1.00000000      1.00000000      1.00000000      1.00000000      1.00000000      1.00000000      1.00000000      1.00000000      1.00000000      1.00000000      1.00000000      1.00000000      1.00000000      1.00000000      1.00000000      1.00000000      1.00000000      1.00000000      1.00000000      1.00000000
      1.00000000      1.00000000      1.00000000      1.00000000      1.00000000      1.00000000      1.00000000      1.00000000</v>
    <i name="NUPDOWN">     -1.00000000</i>
    <i type="logical" name="LSORBIT"> F  </i>
    <v name="SAXIS">      0.00000000      0.00000000      1.00000000</v>
    <i type="logical" name="LSPIRAL"> F  </i>
    <v name="QSPIRAL">      0.00000000      0.00000000      0.00000000</v>
    <i type="logical" name="LZEROZ"> F  </i>
   </separator>
   <separator name="electronic exchange-correlation" >
    <i type="logical" name="LASPH"> T  </i>
    <i type="logical" name="LMETAGGA"> F  </i>
   </separator>
   <separator name="electronic convergence" >
    <i type="int" name="NELM">   200</i>
    <i type="int" name="NELMDL">    -5</i>
    <i type="int" name="NELMIN">     8</i>
    <i name="ENINI">   1000.00000000</i>
    <separator name="electronic convergence detail" >
     <i type="logical" name="LDIAG"> T  </i>
     <i type="logical" name="LSUBROT"> F  </i>
     <i name="WEIMIN">      0.00100000</i>
     <i name="EBREAK">      0.00000001</i>
     <i name="DEPER">      0.30000000</i>
     <i type="int" name="NRMM">     4</i>
     <i name="TIME">      0.40000000</i>
    </separator>
   </separator>
   <separator name="electronic mixer" >
    <i name="AMIX">      0.40000000</i>
    <i name="BMIX">      1.00000000</i>
    <i name="AMIN">      0.10000000</i>
    <i name="AMIX_MAG">      1.60000000</i>
    <i name="BMIX_MAG">      1.00000000</i>
    <separator name="electronic mixer details" >
     <i type="int" name="IMIX">     4</i>
     <i type="logical" name="MIXFIRST"> F  </i>
     <i type="int" name="MAXMIX">   -45</i>
     <i name="WC">    100.00000000</i>
     <i type="int" name="INIMIX">     1</i>
     <i type="int" name="MIXPRE">     1</i>
     <i type="int" name="MREMOVE">     5</i>
    </separator>
   </separator>
   <separator name="electronic dipolcorrection" >
    <i type="logical" name="LDIPOL"> F  </i>
    <i type="logical" name="LMONO"> F  </i>
    <i type="int" name="IDIPOL">     0</i>
    <i name="EPSILON">      1.00000000</i>
    <v name="DIPOL">   -100.00000000   -100.00000000   -100.00000000</v>
    <i name="EFIELD">      0.00000000</i>
   </separator>
  </separator>
  <separator name="grids" >
   <i type="int" name="NGX">    96</i>
   <i type="int" name="NGY">    96</i>
   <i type="int" name="NGZ">   140</i>
   <i type="int" name="NGXF">   192</i>
   <i type="int" name="NGYF">   192</i>
   <i type="int" name="NGZF">   280</i>
   <i type="logical" name="ADDGRID"> F  </i>
  </separator>
  <separator name="ionic" >
   <i type="int" name="NSW">  1000</i>
   <i type="int" name="IBRION">     2</i>
   <i type="int" name="MDALGO">     0</i>
   <i type="int" name="ISIF">     3</i>
   <i name="PSTRESS">      0.00000000</i>
   <i name="EDIFFG">     -0.01000000</i>
   <i type="int" name="NFREE">     1</i>
   <i name="POTIM">      0.50000000</i>
   <i name="SMASS">     -3.00000000</i>
   <i name="SCALEE">      1.00000000</i>
  </separator>
  <separator name="ionic md" >
   <i name="TEBEG">      0.00010000</i>
   <i name="TEEND">      0.00010000</i>
   <i type="int" name="NBLOCK">     1</i>
   <i type="int" name="KBLOCK">  1000</i>
   <i type="int" name="NPACO">   256</i>
   <i name="APACO">     10.00000000</i>
  </separator>
  <separator name="symmetry" >
   <i type="int" name="ISYM">     0</i>
   <i name="SYMPREC">      0.00001000</i>
  </separator>
  <separator name="dos" >
   <i type="int" name="LORBIT">     0</i>
   <v name="RWIGS">     -1.00000000     -1.00000000     -1.00000000     -1.00000000     -1.00000000</v>
   <i type="int" name="NEDOS">   301</i>
   <i name="EMIN">     10.00000000</i>
   <i name="EMAX">    -10.00000000</i>
   <i name="EFERMI">      0.00000000</i>
  </separator>
  <separator name="writing" >
   <i type="int" name="NWRITE">     2</i>
   <i type="logical" name="LWAVE"> F  </i>
   <i type="logical" name="LDOWNSAMPLE"> F  </i>
   <i type="logical" name="LCHARG"> F  </i>
   <i type="logical" name="LPARD"> F  </i>
   <i type="logical" name="LVTOT"> F  </i>
   <i type="logical" name="LVHAR"> F  </i>
   <i type="logical" name="LELF"> F  </i>
   <i type="logical" name="LOPTICS"> F  </i>
   <v name="STM">      0.00000000      0.00000000      0.00000000      0.00000000      0.00000000      0.00000000      0.00000000</v>
  </separator>
  <separator name="performance" >
   <i type="int" name="NPAR">     8</i>
   <i type="int" name="NSIM">     4</i>
   <i type="int" name="NBLK">    -1</i>
   <i type="logical" name="LPLANE"> T  </i>
   <i type="logical" name="LSCALAPACK"> T  </i>
   <i type="logical" name="LSCAAWARE"> F  </i>
   <i type="logical" name="LSCALU"> F  </i>
   <i type="logical" name="LASYNC"> F  </i>
   <i type="logical" name="LORBITALREAL"> F  </i>
  </separator>
  <separator name="miscellaneous" >
   <i type="int" name="IDIOT">     3</i>
   <i type="int" name="PHON_NSTRUCT">    -1</i>
   <i type="logical" name="LMUSIC"> F  </i>
   <v name="POMASS">     12.01100000      1.00000000    126.90400000     14.00100000    118.71000000</v>
   <v name="DARWINR">      0.00000000      0.00000000      0.00000000      0.00000000      0.00000000</v>
   <v name="DARWINV">      1.00000000      1.00000000      1.00000000      1.00000000      1.00000000</v>
   <i type="logical" name="LCORR"> T  </i>
  </separator>
  <i type="logical" name="GGA_COMPAT"> T  </i>
  <i type="logical" name="LBERRY"> F  </i>
  <i type="int" name="ICORELEVEL">     0</i>
  <i type="logical" name="LDAU"> F  </i>
  <i type="int" name="I_CONSTRAINED_M">     0</i>
  <separator name="electronic exchange-correlation" >
   <i type="string" name="GGA">MK</i>
   <i type="int" name="VOSKOWN">     0</i>
   <i type="logical" name="LHFCALC"> F  </i>
   <i type="string" name="PRECFOCK"></i>
   <i type="logical" name="LSYMGRAD"> F  </i>
   <i type="logical" name="LHFONE"> F  </i>
   <i type="logical" name="LRHFCALC"> F  </i>
   <i type="logical" name="LTHOMAS"> F  </i>
   <i type="logical" name="LMODELHF"> F  </i>
   <i type="logical" name="LFOCKACE"> F  </i>
   <i name="ENCUT4O">     -1.00000000</i>
   <i type="int" name="EXXOEP">     0</i>
   <i type="int" name="FOURORBIT">     0</i>
   <i name="AEXX">      0.00000000</i>
   <i name="HFALPHA">      0.00000000</i>
   <i name="MCALPHA">      0.00000000</i>
   <i name="ALDAX">      1.00000000</i>
   <i name="AGGAX">      1.00000000</i>
   <i name="ALDAC">      1.00000000</i>
   <i name="AGGAC">      0.00000000</i>
   <i type="int" name="NKREDX">     1</i>
   <i type="int" name="NKREDY">     1</i>
   <i type="int" name="NKREDZ">     1</i>
   <i type="logical" name="SHIFTRED"> F  </i>
   <i type="logical" name="ODDONLY"> F  </i>
   <i type="logical" name="EVENONLY"> F  </i>
   <i type="int" name="LMAXFOCK">     0</i>
   <i type="int" name="NMAXFOCKAE">     0</i>
   <i type="logical" name="LFOCKAEDFT"> F  </i>
   <i name="HFSCREEN">      0.00000000</i>
   <i name="HFSCREENC">      0.00000000</i>
   <i type="int" name="NBANDSGWLOW">     0</i>
  </separator>
  <separator name="vdW DFT" >
   <i type="logical" name="LUSE_VDW"> T  </i>
   <i name="Zab_VDW">     -0.84910000</i>
   <i name="PARAM1">      0.12340000</i>
   <i name="PARAM2">      1.00000000</i>
   <i name="PARAM3">      0.00000000</i>
  </separator>
  <separator name="model GW" >
   <i type="int" name="MODEL_GW">     0</i>
   <i name="MODEL_EPS0">     12.36599559</i>
   <i name="MODEL_ALPHA">      1.00000000</i>
  </separator>
  <separator name="linear response parameters" >
   <i type="logical" name="LEPSILON"> F  </i>
   <i type="logical" name="LRPA"> F  </i>
   <i type="logical" name="LNABLA"> F  </i>
   <i type="logical" name="LVEL"> F  </i>
   <i name="CSHIFT">      0.10000000</i>
   <i name="OMEGAMAX">     -1.00000000</i>
   <i name="DEG_THRESHOLD">      0.00200000</i>
   <i name="RTIME">     -0.10000000</i>
   <i name="WPLASMAI">      0.00000000</i>
   <v name="DFIELD">      0.00000000      0.00000000      0.00000000</v>
   <v name="WPLASMA">      0.00000000      0.00000000      0.00000000      0.00000000      0.00000000      0.00000000      0.00000000      0.00000000      0.00000000</v>
  </separator>
  <separator name="orbital magnetization" >
   <i type="logical" name="NUCIND"> F  </i>
   <v name="MAGPOS">      0.00000000      0.00000000      0.00000000</v>
   <i type="logical" name="LNICSALL"> T  </i>
   <i type="logical" name="ORBITALMAG"> F  </i>
   <i type="logical" name="LMAGBLOCH"> F  </i>
   <i type="logical" name="LCHIMAG"> F  </i>
   <i type="logical" name="LGAUGE"> T  </i>
   <i type="int" name="MAGATOM">     0</i>
   <v name="MAGDIPOL">      0.00000000      0.00000000      0.00000000</v>
   <v name="AVECCONST">      0.00000000      0.00000000      0.00000000</v>
  </separator>
  <separator name="response functions" >
   <i type="logical" name="LFINITE_TEMPERATURE"> F  </i>
   <i type="logical" name="LADDER"> F  </i>
   <i type="logical" name="LRPAFORCE"> F  </i>
   <i type="logical" name="LFXC"> F  </i>
   <i type="logical" name="LHARTREE"> T  </i>
   <i type="int" name="IBSE">     0</i>
   <v type="int" name="KPOINT">    -1     0     0     0</v>
   <i type="logical" name="LTCTC"> F  </i>
   <i type="logical" name="LTCTE"> F  </i>
   <i type="logical" name="LTETE"> F  </i>
   <i type="logical" name="LTRIPLET"> F  </i>
   <i type="logical" name="LFXCEPS"> F  </i>
   <i type="logical" name="LFXHEG"> F  </i>
   <i type="int" name="NATURALO">     2</i>
   <i type="logical" name="LHOLEGF"> F  </i>
   <i type="logical" name="L2ORDER"> F  </i>
   <i type="logical" name="LDMP1"> F  </i>
   <i type="logical" name="LMP2LT"> F  </i>
   <i type="logical" name="LSMP2LT"> F  </i>
   <i type="logical" name="LGWLF"> F  </i>
   <i name="ENCUTGW">     -2.00000000</i>
   <i name="ENCUTGWSOFT">     -2.00000000</i>
   <i name="ENCUTLF">     -1.00000000</i>
   <i type="logical" name="LESF_SPLINES"> F  </i>
   <i type="int" name="LMAXMP2">    -1</i>
   <i name="SCISSOR">      0.00000000</i>
   <i type="int" name="NOMEGA">     0</i>
   <i type="int" name="NOMEGAR">     0</i>
   <i type="int" name="NBANDSGW">    -1</i>
   <i type="int" name="NBANDSO">    -1</i>
   <i type="int" name="NBANDSV">    -1</i>
   <i type="int" name="NELMGW">     1</i>
   <i type="int" name="NELMHF">     1</i>
   <i type="int" name="DIM">     3</i>
   <i type="int" name="IESPILON">     4</i>
   <i type="int" name="ANTIRES">     0</i>
   <i name="OMEGAMAX">    -30.00000000</i>
   <i name="OMEGAMIN">    -30.00000000</i>
   <i name="OMEGATL">   -200.00000000</i>
   <i type="int" name="OMEGAGRID">     0</i>
   <i name="CSHIFT">     -0.10000000</i>
   <i type="logical" name="LSELFENERGY"> F  </i>
   <i type="logical" name="LSPECTRAL"> F  </i>
   <i type="logical" name="LSPECTRALGW"> F  </i>
   <i type="logical" name="LSINGLES"> F  </i>
   <i type="logical" name="LFERMIGW"> F  </i>
   <i type="logical" name="ODDONLYGW"> F  </i>
   <i type="logical" name="EVENONLYGW"> F  </i>
   <i type="int" name="NKREDLFX">     1</i>
   <i type="int" name="NKREDLFY">     1</i>
   <i type="int" name="NKREDLFZ">     1</i>
   <i type="int" name="MAXMEM">  2800</i>
   <i type="int" name="TELESCOPE">     0</i>
   <i type="int" name="NTAUPAR">    -1</i>
   <i type="int" name="NOMEGAPAR">    -1</i>
   <i name="DAMP_NEWTON">      0.80000001</i>
   <i name="LAMBDA">      1.00000000</i>
  </separator>
  <separator name="External order field" >
   <i name="OFIELD_KAPPA">      0.00000000</i>
   <v name="OFIELD_K">      0.00000000      0.00000000      0.00000000</v>
   <i name="OFIELD_Q6_NEAR">      0.00000000</i>
   <i name="OFIELD_Q6_FAR">      0.00000000</i>
   <i name="OFIELD_A">      0.00000000</i>
  </separator>
  <separator name="optional k-points parameters" >
   <i type="int" name="KPOINTS_OPT_MODE">     1</i>
   <i type="logical" name="LKPOINTS_OPT"> F  </i>
  </separator>
 </parameters>
 <atominfo>
  <atoms>      48 </atoms>
  <types>       5 </types>
  <array name="atoms" >
   <dimension dim="1">ion</dimension>
   <field type="string">element</field>
   <field type="int">atomtype</field>
   <set>
    <rc><c>C </c><c>   1</c></rc>
    <rc><c>C </c><c>   1</c></rc>
    <rc><c>C </c><c>   1</c></rc>
    <rc><c>C </c><c>   1</c></rc>
    <rc><c>H </c><c>   2</c></rc>
    <rc><c>H </c><c>   2</c></rc>
    <rc><c>H </c><c>   2</c></rc>
    <rc><c>H </c><c>   2</c></rc>
    <rc><c>H </c><c>   2</c></rc>
    <rc><c>H </c><c>   2</c></rc>
    <rc><c>H </c><c>   2</c></rc>
    <rc><c>H </c><c>   2</c></rc>
    <rc><c>H </c><c>   2</c></rc>
    <rc><c>H </c><c>   2</c></rc>
    <rc><c>H </c><c>   2</c></rc>
    <rc><c>H </c><c>   2</c></rc>
    <rc><c>H </c><c>   2</c></rc>
    <rc><c>H </c><c>   2</c></rc>
    <rc><c>H </c><c>   2</c></rc>
    <rc><c>H </c><c>   2</c></rc>
    <rc><c>H </c><c>   2</c></rc>
    <rc><c>H </c><c>   2</c></rc>
    <rc><c>H </c><c>   2</c></rc>
    <rc><c>H </c><c>   2</c></rc>
    <rc><c>I </c><c>   3</c></rc>
    <rc><c>I </c><c>   3</c></rc>
    <rc><c>I </c><c>   3</c></rc>
    <rc><c>I </c><c>   3</c></rc>
    <rc><c>I </c><c>   3</c></rc>
    <rc><c>I </c><c>   3</c></rc>
    <rc><c>I </c><c>   3</c></rc>
    <rc><c>I </c><c>   3</c></rc>
    <rc><c>I </c><c>   3</c></rc>
    <rc><c>I </c><c>   3</c></rc>
    <rc><c>I </c><c>   3</c></rc>
    <rc><c>I </c><c>   3</c></rc>
    <rc><c>N </c><c>   4</c></rc>
    <rc><c>N </c><c>   4</c></rc>
    <rc><c>N </c><c>   4</c></rc>
    <rc><c>N </c><c>   4</c></rc>
    <rc><c>N </c><c>   4</c></rc>
    <rc><c>N </c><c>   4</c></rc>
    <rc><c>N </c><c>   4</c></rc>
    <rc><c>N </c><c>   4</c></rc>
    <rc><c>Sn</c><c>   5</c></rc>
    <rc><c>Sn</c><c>   5</c></rc>
    <rc><c>Sn</c><c>   5</c></rc>
    <rc><c>Sn</c><c>   5</c></rc>
   </set>
  </array>
  <array name="atomtypes" >
   <dimension dim="1">type</dimension>
   <field type="int">atomspertype</field>
   <field type="string">element</field>
   <field>mass</field>
   <field>valence</field>
   <field type="string">pseudopotential</field>
   <set>
    <rc><c>   4</c><c>C </c><c>     12.01100000</c><c>      4.00000000</c><c>  PAW_PBE C 08Apr2002                   </c></rc>
    <rc><c>  20</c><c>H </c><c>      1.00000000</c><c>      1.00000000</c><c>  PAW_PBE H 15Jun2001                   </c></rc>
    <rc><c>  12</c><c>I </c><c>    126.90400000</c><c>      7.00000000</c><c>  PAW_PBE I 08Apr2002                   </c></rc>
    <rc><c>   8</c><c>N </c><c>     14.00100000</c><c>      5.00000000</c><c>  PAW_PBE N 08Apr2002                   </c></rc>
    <rc><c>   4</c><c>Sn</c><c>    118.71000000</c><c>      4.00000000</c><c>  PAW_PBE Sn 08Apr2002                  </c></rc>
   </set>
  </array>
 </atominfo>
 <structure name="initialpos" >
  <crystal>
   <varray name="basis" >
    <v>       8.88200000       0.00000000       0.00000000 </v>
    <v>       0.00000000       8.88200000       0.00000000 </v>
    <v>       0.00000000       0.00000000      12.54000000 </v>
   </varray>
   <i name="volume">    989.27964696 </i>
   <varray name="rec_basis" >
    <v>       0.11258726       0.00000000       0.00000000 </v>
    <v>       0.00000000       0.11258726       0.00000000 </v>
    <v>       0.00000000       0.00000000       0.07974482 </v>
   </varray>
  </crystal>
  <varray name="positions" >
   <v>       0.99707273       0.50709300       0.01913876 </v>
   <v>       0.50619230       0.01035803       0.01913876 </v>
   <v>       0.99707273       0.50709300       0.51913876 </v>
   <v>       0.50619230       0.01035803       0.51913876 </v>
   <v>       0.89157847       0.60087818       0.88867624 </v>
   <v>       0.10144112       0.40666517       0.89106858 </v>
   <v>       0.16358928       0.35239811       0.01818182 </v>
   <v>       0.83066877       0.66257600       0.01419458 </v>
   <v>       0.99729791       0.50956992       0.10709729 </v>
   <v>       0.41240712       0.90486377       0.88867624 </v>
   <v>       0.60662013       0.11472641       0.89106858 </v>
   <v>       0.66088719       0.17687458       0.01818182 </v>
   <v>       0.35070930       0.84395406       0.01419458 </v>
   <v>       0.50371538       0.01058320       0.10709729 </v>
   <v>       0.89157847       0.60087818       0.38867624 </v>
   <v>       0.10144112       0.40666517       0.39106858 </v>
   <v>       0.16358928       0.35239811       0.51818182 </v>
   <v>       0.83066877       0.66257600       0.51419458 </v>
   <v>       0.99729791       0.50956992       0.60709729 </v>
   <v>       0.41240712       0.90486377       0.38867624 </v>
   <v>       0.60662013       0.11472641       0.39106858 </v>
   <v>       0.66088719       0.17687458       0.51818182 </v>
   <v>       0.35070930       0.84395406       0.51419458 </v>
   <v>       0.50371538       0.01058320       0.60709729 </v>
   <v>       0.27775276       0.22224724       0.25000000 </v>
   <v>       0.72235983       0.77775276       0.25000000 </v>
   <v>       0.77775276       0.27775276       0.25000000 </v>
   <v>       0.22224724       0.72235983       0.25000000 </v>
   <v>       0.00000000       0.00000000       0.00000000 </v>
   <v>       0.50000000       0.50000000       0.00000000 </v>
   <v>       0.27775276       0.22224724       0.75000000 </v>
   <v>       0.72235983       0.77775276       0.75000000 </v>
   <v>       0.77775276       0.27775276       0.75000000 </v>
   <v>       0.22224724       0.72235983       0.75000000 </v>
   <v>       0.00000000       0.00000000       0.50000000 </v>
   <v>       0.50000000       0.50000000       0.50000000 </v>
   <v>       0.09412295       0.41859941       0.97208931 </v>
   <v>       0.89957217       0.59288449       0.97001595 </v>
   <v>       0.59468588       0.10740824       0.97208931 </v>
   <v>       0.42040081       0.91285746       0.97001595 </v>
   <v>       0.09412295       0.41859941       0.47208931 </v>
   <v>       0.89957217       0.59288449       0.47001595 </v>
   <v>       0.59468588       0.10740824       0.47208931 </v>
   <v>       0.42040081       0.91285746       0.47001595 </v>
   <v>       0.00000000       0.00000000       0.25000000 </v>
   <v>       0.50000000       0.50000000       0.25000000 </v>
   <v>       0.00000000       0.00000000       0.75000000 </v>
   <v>       0.50000000       0.50000000       0.75000000 </v>
  </varray>
 </structure>
 <calculation>
  <scstep>
   <time name="total">   12.23   12.48</time>
   <energy>
    <i name="alphaZ">    116.79868179 </i>
    <i name="ewald">  -4682.54935801 </i>
    <i name="hartreedc">  -2063.84345176 </i>
    <i name="XCdc">   -375.92767918 </i>
    <i name="pawpsdc">   6161.33813817 </i>
    <i name="pawaedc">  -5338.05185836 </i>
    <i name="eentropy">     -0.00925552 </i>
    <i name="bandstr">    430.83089305 </i>
    <i name="atom">   7160.47832104 </i>
    <i name="e_fr_energy">   1409.06443122 </i>
    <i name="e_wo_entrp">   1409.07368674 </i>
    <i name="e_0_energy">   1409.06905898 </i>
   </energy>
  </scstep>
  <scstep>
   <time name="total">    8.62    8.63</time>
   <energy>
    <i name="e_fr_energy">     16.80141826 </i>
    <i name="e_wo_entrp">     16.80645528 </i>
    <i name="e_0_energy">     16.80393677 </i>
   </energy>
  </scstep>
  <scstep>
   <time name="total">    8.79    8.81</time>
   <energy>
    <i name="e_fr_energy">   -177.89519742 </i>
    <i name="e_wo_entrp">   -177.89519692 </i>
    <i name="e_0_energy">   -177.89519717 </i>
   </energy>
  </scstep>
  <scstep>
   <time name="total">    8.38    8.39</time>
   <energy>
    <i name="e_fr_energy">   -184.01554974 </i>
    <i name="e_wo_entrp">   -184.01554171 </i>
    <i name="e_0_energy">   -184.01554573 </i>
   </energy>
  </scstep>
  <scstep>
   <time name="total">    9.74    9.75</time>
   <energy>
    <i name="e_fr_energy">   -184.18961488 </i>
    <i name="e_wo_entrp">   -184.18960534 </i>
    <i name="e_0_energy">   -184.18961011 </i>
   </energy>
  </scstep>
  <scstep>
   <time name="total">   14.16   14.17</time>
   <energy>
    <i name="e_fr_energy">   -155.00961885 </i>
    <i name="e_wo_entrp">   -155.00961885 </i>
    <i name="e_0_energy">   -155.00961885 </i>
   </energy>
  </scstep>
  <scstep>
   <time name="total">   14.13   14.14</time>
   <energy>
    <i name="e_fr_energy">   -168.91085655 </i>
    <i name="e_wo_entrp">   -168.91085655 </i>
    <i name="e_0_energy">   -168.91085655 </i>
   </energy>
  </scstep>
  <scstep>
   <time name="total">   14.09   14.10</time>
   <energy>
    <i name="e_fr_energy">   -170.53379224 </i>
    <i name="e_wo_entrp">   -170.53379224 </i>
    <i name="e_0_energy">   -170.53379224 </i>
   </energy>
  </scstep>
  <scstep>
   <time name="total">   14.14   14.14</time>
   <energy>
    <i name="e_fr_energy">   -171.04453579 </i>
    <i name="e_wo_entrp">   -171.04453579 </i>
    <i name="e_0_energy">   -171.04453579 </i>
   </energy>
  </scstep>
  <scstep>
   <time name="total">   14.12   14.15</time>
   <energy>
    <i name="e_fr_energy">   -171.20146620 </i>
    <i name="e_wo_entrp">   -171.20146620 </i>
    <i name="e_0_energy">   -171.20146620 </i>
   </energy>
  </scstep>
  <scstep>
   <time name="total">   14.14   14.15</time>
   <energy>
    <i name="e_fr_energy">   -171.24909783 </i>
    <i name="e_wo_entrp">   -171.24909783 </i>
    <i name="e_0_energy">   -171.24909783 </i>
   </energy>
  </scstep>
  <scstep>
   <time name="total">   14.13   14.14</time>
   <energy>
    <i name="e_fr_energy">   -171.25929889 </i>
    <i name="e_wo_entrp">   -171.25929889 </i>
    <i name="e_0_energy">   -171.25929889 </i>
   </energy>
  </scstep>
  <scstep>
   <time name="total">   14.15   14.16</time>
   <energy>
    <i name="e_fr_energy">   -171.26171711 </i>
    <i name="e_wo_entrp">   -171.26171711 </i>
    <i name="e_0_energy">   -171.26171711 </i>
   </energy>
  </scstep>
  <scstep>
   <time name="total">   14.12   14.13</time>
   <energy>
    <i name="e_fr_energy">   -171.26227141 </i>
    <i name="e_wo_entrp">   -171.26227141 </i>
    <i name="e_0_energy">   -171.26227141 </i>
   </energy>
  </scstep>
  <scstep>
   <time name="total">   14.12   14.12</time>
   <energy>
    <i name="e_fr_energy">   -171.26240208 </i>
    <i name="e_wo_entrp">   -171.26240208 </i>
    <i name="e_0_energy">   -171.26240208 </i>
   </energy>
  </scstep>
  <scstep>
   <time name="total">   14.13   14.13</time>
   <energy>
    <i name="e_fr_energy">   -171.26243295 </i>
    <i name="e_wo_entrp">   -171.26243295 </i>
    <i name="e_0_energy">   -171.26243295 </i>
   </energy>
  </scstep>
  <scstep>
   <time name="total">   14.14   14.15</time>
   <energy>
    <i name="e_fr_energy">   -171.26244031 </i>
    <i name="e_wo_entrp">   -171.26244031 </i>
    <i name="e_0_energy">   -171.26244031 </i>
   </energy>
  </scstep>
  <scstep>
   <time name="total">   15.37   15.38</time>
   <energy>
    <i name="alphaZ">    116.79868179 </i>
    <i name="ewald">  -4682.54935801 </i>
    <i name="hartreedc">  -2285.70761500 </i>
    <i name="XCdc">   -359.47252962 </i>
    <i name="pawpsdc">  11743.08259491 </i>
    <i name="pawaedc"> -10924.36700931 </i>
    <i name="eentropy">     -0.00000000 </i>
    <i name="bandstr">   -939.52552790 </i>
    <i name="atom">   7160.47832104 </i>
    <i name="e_fr_energy">   -171.26244209 </i>
    <i name="e_wo_entrp">   -171.26244209 </i>
    <i name="e_0_energy">   -171.26244209 </i>
   </energy>
  </scstep>
  <structure>
   <crystal>
    <varray name="basis" >
     <v>       8.88200000       0.00000000       0.00000000 </v>
     <v>       0.00000000       8.88200000       0.00000000 </v>
     <v>       0.00000000       0.00000000      12.54000000 </v>
    </varray>
    <i name="volume">    989.27964696 </i>
    <varray name="rec_basis" >
     <v>       0.11258726       0.00000000       0.00000000 </v>
     <v>       0.00000000       0.11258726       0.00000000 </v>
     <v>       0.00000000       0.00000000       0.07974482 </v>
    </varray>
   </crystal>
   <varray name="positions" >
    <v>       0.99707273       0.50709300       0.01913876 </v>
    <v>       0.50619230       0.01035803       0.01913876 </v>
    <v>       0.99707273       0.50709300       0.51913876 </v>
    <v>       0.50619230       0.01035803       0.51913876 </v>
    <v>       0.89157847       0.60087818       0.88867624 </v>
    <v>       0.10144112       0.40666517       0.89106858 </v>
    <v>       0.16358928       0.35239811       0.01818182 </v>
    <v>       0.83066877       0.66257600       0.01419458 </v>
    <v>       0.99729791       0.50956992       0.10709729 </v>
    <v>       0.41240712       0.90486377       0.88867624 </v>
    <v>       0.60662013       0.11472641       0.89106858 </v>
    <v>       0.66088719       0.17687458       0.01818182 </v>
    <v>       0.35070930       0.84395406       0.01419458 </v>
    <v>       0.50371538       0.01058320       0.10709729 </v>
    <v>       0.89157847       0.60087818       0.38867624 </v>
    <v>       0.10144112       0.40666517       0.39106858 </v>
    <v>       0.16358928       0.35239811       0.51818182 </v>
    <v>       0.83066877       0.66257600       0.51419458 </v>
    <v>       0.99729791       0.50956992       0.60709729 </v>
    <v>       0.41240712       0.90486377       0.38867624 </v>
    <v>       0.60662013       0.11472641       0.39106858 </v>
    <v>       0.66088719       0.17687458       0.51818182 </v>
    <v>       0.35070930       0.84395406       0.51419458 </v>
    <v>       0.50371538       0.01058320       0.60709729 </v>
    <v>       0.27775276       0.22224724       0.25000000 </v>
    <v>       0.72235983       0.77775276       0.25000000 </v>
    <v>       0.77775276       0.27775276       0.25000000 </v>
    <v>       0.22224724       0.72235983       0.25000000 </v>
    <v>       0.00000000       0.00000000       0.00000000 </v>
    <v>       0.50000000       0.50000000       0.00000000 </v>
    <v>       0.27775276       0.22224724       0.75000000 </v>
    <v>       0.72235983       0.77775276       0.75000000 </v>
    <v>       0.77775276       0.27775276       0.75000000 </v>
    <v>       0.22224724       0.72235983       0.75000000 </v>
    <v>       0.00000000       0.00000000       0.50000000 </v>
    <v>       0.50000000       0.50000000       0.50000000 </v>
    <v>       0.09412295       0.41859941       0.97208931 </v>
    <v>       0.89957217       0.59288449       0.97001595 </v>
    <v>       0.59468588       0.10740824       0.97208931 </v>
    <v>       0.42040081       0.91285746       0.97001595 </v>
    <v>       0.09412295       0.41859941       0.47208931 </v>
    <v>       0.89957217       0.59288449       0.47001595 </v>
    <v>       0.59468588       0.10740824       0.47208931 </v>
    <v>       0.42040081       0.91285746       0.47001595 </v>
    <v>       0.00000000       0.00000000       0.25000000 </v>
    <v>       0.50000000       0.50000000       0.25000000 </v>
    <v>       0.00000000       0.00000000       0.75000000 </v>
    <v>       0.50000000       0.50000000       0.75000000 </v>
   </varray>
  </structure>
  <varray name="forces" >
   <v>      -0.06295641       0.05591751       0.63515304 </v>
   <v>       0.02331929       0.01776894       0.63710267 </v>
   <v>      -0.06267660       0.05570794       0.63518380 </v>
   <v>       0.02314888       0.01764609       0.63709843 </v>
   <v>      -0.03378823       0.02277645       0.02708379 </v>
   <v>       0.06109602      -0.03381540      -0.00553226 </v>
   <v>      -0.17522460       0.19923057      -0.27089109 </v>
   <v>       0.24001578      -0.28174481      -0.26532785 </v>
   <v>       0.00901892      -0.00235329      -0.27361370 </v>
   <v>      -0.00826851      -0.02414949       0.05556070 </v>
   <v>       0.04783062       0.06881463      -0.03613279 </v>
   <v>      -0.20318973      -0.18329704      -0.25748071 </v>
   <v>       0.27754474       0.23411482      -0.27703304 </v>
   <v>       0.00320415       0.00308271      -0.27357910 </v>
   <v>      -0.03377889       0.02277797       0.02697895 </v>
   <v>       0.06110660      -0.03381263      -0.00542842 </v>
   <v>      -0.17527922       0.19928870      -0.27095104 </v>
   <v>       0.23995675      -0.28167898      -0.26526697 </v>
   <v>       0.00904874      -0.00236961      -0.27360988 </v>
   <v>      -0.00827835      -0.02414758       0.05562308 </v>
   <v>       0.04782461       0.06881338      -0.03619509 </v>
   <v>      -0.20315643      -0.18325371      -0.25744099 </v>
   <v>       0.27756785       0.23414848      -0.27706421 </v>
   <v>       0.00318382       0.00307407      -0.27358194 </v>
   <v>       0.04099994      -0.02232991      -0.09981663 </v>
   <v>      -0.06518274       0.06224106      -0.14999146 </v>
   <v>       0.06409828       0.07651184      -0.16086536 </v>
   <v>      -0.02450032      -0.03299252      -0.09108803 </v>
   <v>       0.02755080       0.01687024       0.01278185 </v>
   <v>      -0.02485948       0.05449311       0.02323054 </v>
   <v>       0.04100053      -0.02232802      -0.09996643 </v>
   <v>      -0.06517678       0.06222623      -0.14990747 </v>
   <v>       0.06409589       0.07651808      -0.16081711 </v>
   <v>      -0.02449977      -0.03300228      -0.09120680 </v>
   <v>       0.02768856       0.01692251       0.01277677 </v>
   <v>      -0.02502077       0.05449245       0.02324796 </v>
   <v>       0.38690745      -0.49065712       0.19531056 </v>
   <v>      -0.38849784       0.47743053       0.19671920 </v>
   <v>       0.38721421       0.27575397       0.26794203 </v>
   <v>      -0.58017124      -0.49525067       0.12738537 </v>
   <v>       0.38703977      -0.49072962       0.19532419 </v>
   <v>      -0.38836472       0.47737037       0.19671534 </v>
   <v>       0.38711583       0.27572064       0.26791887 </v>
   <v>      -0.58026607      -0.49526542       0.12737360 </v>
   <v>       0.03208887      -0.01458825      -0.00663393 </v>
   <v>      -0.03431001       0.01632084      -0.01021336 </v>
   <v>       0.03208798      -0.01458956      -0.00664882 </v>
   <v>      -0.03430814       0.01632177      -0.01022625 </v>
  </varray>
  <varray name="stress" >
   <v>       0.12267809      -0.03493229      -0.09231314 </v>
   <v>      -0.03493297       0.19344544      -0.34492304 </v>
   <v>      -0.09231314      -0.34492285      -6.07591935 </v>
  </varray>
  <energy>
   <i name="e_fr_energy">   -171.26244209 </i>
   <i name="e_wo_entrp">   -171.26244209 </i>
   <i name="e_0_energy">   -171.26244209 </i>
  </energy>
  <time name="totalsc">  256.13  256.58</time>
 </calculation>
 <calculation>
  <scstep>
   <time name="total">   14.14   14.15</time>
   <energy>
    <i name="alphaZ">    117.21775870 </i>
    <i name="ewald">  -4710.43084760 </i>
    <i name="hartreedc">  -2275.79169791 </i>
    <i name="XCdc">   -359.34064226 </i>
    <i name="pawpsdc">  12863.46089570 </i>
    <i name="pawaedc"> -12044.66518367 </i>
    <i name="eentropy">     -0.00000000 </i>
    <i name="bandstr">   -914.79658211 </i>
    <i name="atom">   7160.47832104 </i>
    <i name="e_fr_energy">   -163.86797811 </i>
    <i name="e_wo_entrp">   -163.86797811 </i>
    <i name="e_0_energy">   -163.86797811 </i>
   </energy>
  </scstep>
  <scstep>
   <time name="total">   14.10   14.11</time>
   <energy>
    <i name="e_fr_energy">   -169.14931881 </i>
    <i name="e_wo_entrp">   -169.14931881 </i>
    <i name="e_0_energy">   -169.14931881 </i>
   </energy>
  </scstep>
  <scstep>
   <time name="total">   14.12   14.13</time>
   <energy>
    <i name="e_fr_energy">   -170.43375348 </i>
    <i name="e_wo_entrp">   -170.43375348 </i>
    <i name="e_0_energy">   -170.43375348 </i>
   </energy>
  </scstep>
  <scstep>
   <time name="total">   14.14   14.15</time>
   <energy>
    <i name="e_fr_energy">   -170.65618378 </i>
    <i name="e_wo_entrp">   -170.65618378 </i>
    <i name="e_0_energy">   -170.65618378 </i>
   </energy>
  </scstep>
  <scstep>
   <time name="total">   14.13   14.14</time>
   <energy>
    <i name="e_fr_energy">   -170.69736763 </i>
    <i name="e_wo_entrp">   -170.69736763 </i>
    <i name="e_0_energy">   -170.69736763 </i>
   </energy>
  </scstep>
  <scstep>
   <time name="total">   14.12   14.13</time>
   <energy>
    <i name="e_fr_energy">   -170.70699463 </i>
    <i name="e_wo_entrp">   -170.70699463 </i>
    <i name="e_0_energy">   -170.70699463 </i>
   </energy>
  </scstep>
  <scstep>
   <time name="total">   14.10   14.11</time>
   <energy>
    <i name="e_fr_energy">   -170.71000814 </i>
    <i name="e_wo_entrp">   -170.71000814 </i>
    <i name="e_0_energy">   -170.71000814 </i>
   </energy>
  </scstep>
  <scstep>
   <time name="total">   14.10   14.11</time>
   <energy>
    <i name="e_fr_energy">   -170.71088800 </i>
    <i name="e_wo_entrp">   -170.71088800 </i>
    <i name="e_0_energy">   -170.71088800 </i>
   </energy>
  </scstep>
  <scstep>
   <time name="total">   14.15   14.16</time>
   <energy>
    <i name="e_fr_energy">   -170.71110125 </i>
    <i name="e_wo_entrp">   -170.71110125 </i>
    <i name="e_0_energy">   -170.71110125 </i>
   </energy>
  </scstep>
  <scstep>
   <time name="total">   14.14   14.15</time>
   <energy>
    <i name="e_fr_energy">   -170.71114419 </i>
    <i name="e_wo_entrp">   -170.71114419 </i>
    <i name="e_0_energy">   -170.71114419 </i>
   </energy>
  </scstep>
  <scstep>
   <time name="total">   14.13   14.16</time>
   <energy>
    <i name="e_fr_energy">   -170.71115323 </i>
    <i name="e_wo_entrp">   -170.71115323 </i>
    <i name="e_0_energy">   -170.71115323 </i>
   </energy>
  </scstep>
  <scstep>
   <time name="total">   15.39   15.39</time>
   <energy>
    <i name="alphaZ">    117.21775870 </i>
    <i name="ewald">  -4710.43084760 </i>
    <i name="hartreedc">  -2257.92549640 </i>
    <i name="XCdc">   -359.09777673 </i>
    <i name="pawpsdc">  11661.62392824 </i>
    <i name="pawaedc"> -10842.96732991 </i>
    <i name="eentropy">     -0.00000000 </i>
    <i name="bandstr">   -939.60971284 </i>
    <i name="atom">   7160.47832104 </i>
    <i name="e_fr_energy">   -170.71115550 </i>
    <i name="e_wo_entrp">   -170.71115550 </i>
    <i name="e_0_energy">   -170.71115550 </i>
   </energy>
  </scstep>
  <structure>
   <crystal>
    <varray name="basis" >
     <v>       8.88267620      -0.00019255      -0.00050883 </v>
     <v>      -0.00019255       8.88306627      -0.00190122 </v>
     <v>      -0.00071839      -0.00268422      12.49271668 </v>
    </varray>
    <i name="volume">    985.74277455 </i>
    <varray name="rec_basis" >
     <v>       0.11257868       0.00000244       0.00000647 </v>
     <v>       0.00000244       0.11257375       0.00002419 </v>
     <v>       0.00000459       0.00001713       0.08004664 </v>
    </varray>
   </crystal>
   <varray name="positions" >
    <v>       0.99673078       0.50739671       0.02158225 </v>
    <v>       0.50631896       0.01045454       0.02158975 </v>
    <v>       0.99673230       0.50739558       0.52158237 </v>
    <v>       0.50631803       0.01045387       0.52158974 </v>
    <v>       0.89139495       0.60100189       0.88878043 </v>
    <v>       0.10177296       0.40648150       0.89104730 </v>
    <v>       0.16263755       0.35348023       0.01713967 </v>
    <v>       0.83197242       0.66104570       0.01317383 </v>
    <v>       0.99734689       0.50955713       0.10604467 </v>
    <v>       0.41236221       0.90473260       0.88888998 </v>
    <v>       0.60687992       0.11510018       0.89092957 </v>
    <v>       0.65978356       0.17587900       0.01719126 </v>
    <v>       0.35221679       0.84522566       0.01312880 </v>
    <v>       0.50373278       0.01059995       0.10604480 </v>
    <v>       0.89139500       0.60100190       0.38878003 </v>
    <v>       0.10177302       0.40648151       0.39104770 </v>
    <v>       0.16263725       0.35348055       0.51713944 </v>
    <v>       0.83197210       0.66104605       0.51317407 </v>
    <v>       0.99734705       0.50955705       0.60604468 </v>
    <v>       0.41236215       0.90473261       0.38889022 </v>
    <v>       0.60687989       0.11510017       0.39092933 </v>
    <v>       0.65978374       0.17587923       0.51719142 </v>
    <v>       0.35221691       0.84522584       0.51312868 </v>
    <v>       0.50373267       0.01059990       0.60604479 </v>
    <v>       0.27797545       0.22212596       0.24961600 </v>
    <v>       0.72200579       0.77809082       0.24942297 </v>
    <v>       0.77810091       0.27816833       0.24938113 </v>
    <v>       0.22211417       0.72218063       0.24964958 </v>
    <v>       0.00014964       0.00009163       0.00004917 </v>
    <v>       0.49986498       0.50029598       0.00008937 </v>
    <v>       0.27797545       0.22212597       0.74961542 </v>
    <v>       0.72200582       0.77809074       0.74942329 </v>
    <v>       0.77810090       0.27816837       0.74938132 </v>
    <v>       0.22211417       0.72218058       0.74964912 </v>
    <v>       0.00015039       0.00009191       0.50004915 </v>
    <v>       0.49986410       0.50029598       0.50008944 </v>
    <v>       0.09622444       0.41593441       0.97284069 </v>
    <v>       0.89746204       0.59547765       0.97077275 </v>
    <v>       0.59678904       0.10890600       0.97312011 </v>
    <v>       0.41724961       0.91016751       0.97050601 </v>
    <v>       0.09622515       0.41593401       0.47284075 </v>
    <v>       0.89746276       0.59547733       0.47077273 </v>
    <v>       0.59678850       0.10890582       0.47312003 </v>
    <v>       0.41724909       0.91016743       0.47050597 </v>
    <v>       0.00017429      -0.00007924       0.24997448 </v>
    <v>       0.49981364       0.50008865       0.24996071 </v>
    <v>       0.00017429      -0.00007924       0.74997442 </v>
    <v>       0.49981366       0.50008865       0.74996066 </v>
   </varray>
  </structure>
  <varray name="forces" >
   <v>       0.16540580      -0.21485213      -2.55992853 </v>
   <v>      -0.31322515      -0.41681007      -2.55187328 </v>
   <v>       0.16482791      -0.21435177      -2.56004942 </v>
   <v>      -0.31284905      -0.41638629      -2.55190471 </v>
   <v>      -0.08234865       0.07538984       0.14949314 </v>
   <v>       0.10311417      -0.07674334       0.15812845 </v>
   <v>       1.15980748      -1.07306828       0.96959780 </v>
   <v>      -1.21595920       1.18589995       1.00847020 </v>
   <v>      -0.00145871       0.03941005       1.38102483 </v>
   <v>      -0.10164413      -0.11398393      -0.00460864 </v>
   <v>       0.04414335       0.07029012       0.31626575 </v>
   <v>       0.96049373       1.03968000       0.89207342 </v>
   <v>      -1.31219165      -1.34102332       1.09431523 </v>
   <v>      -0.03285987      -0.00279020       1.38239911 </v>
   <v>      -0.08231096       0.07535730       0.14971645 </v>
   <v>       0.10315144      -0.07678251       0.15797543 </v>
   <v>       1.16018441      -1.07342736       0.96987860 </v>
   <v>      -1.21558533       1.18552228       1.00819509 </v>
   <v>      -0.00140589       0.03936016       1.38105510 </v>
   <v>      -0.10166487      -0.11399802      -0.00476566 </v>
   <v>       0.04411977       0.07027715       0.31640444 </v>
   <v>       0.96024118       1.03941041       0.89185785 </v>
   <v>      -1.31239228      -1.34123054       1.09446553 </v>
   <v>      -0.03288681      -0.00281162       1.38238550 </v>
   <v>       0.05037764      -0.03202065      -0.09780715 </v>
   <v>      -0.07131595       0.07052603      -0.14505613 </v>
   <v>       0.06654361       0.07869766      -0.14882432 </v>
   <v>      -0.03883427      -0.04513924      -0.09331010 </v>
   <v>       0.02254470       0.01808578       0.00823424 </v>
   <v>      -0.02076322       0.04588755       0.01686703 </v>
   <v>       0.05037692      -0.03200973      -0.09810537 </v>
   <v>      -0.07133484       0.07052145      -0.14531095 </v>
   <v>       0.06654864       0.07871194      -0.14915476 </v>
   <v>      -0.03881546      -0.04514297      -0.09353585 </v>
   <v>       0.02251782       0.01813751       0.00825468 </v>
   <v>      -0.02074083       0.04582871       0.01691062 </v>
   <v>      -2.42208498       2.14354581      -0.40318058 </v>
   <v>       2.32829130      -2.13038953      -0.46536644 </v>
   <v>      -1.77033471      -2.03221488      -0.63975706 </v>
   <v>       2.48408963       2.70749504      -0.24801190 </v>
   <v>      -2.42225474       2.14369183      -0.40335434 </v>
   <v>       2.32815544      -2.13027275      -0.46511477 </v>
   <v>      -1.77020033      -2.03205526      -0.63953123 </v>
   <v>       2.48416521       2.70758111      -0.24803222 </v>
   <v>       0.03097932      -0.01406765      -0.00710470 </v>
   <v>      -0.03279860       0.01816293      -0.01146806 </v>
   <v>       0.03098213      -0.01406582      -0.00722408 </v>
   <v>      -0.03280114       0.01816724      -0.01158826 </v>
  </varray>
  <varray name="stress" >
   <v>      -2.59522489       0.05542843      -1.15477417 </v>
   <v>       0.05542814      -2.59842113      -1.53865904 </v>
   <v>      -1.15477398      -1.53865844       8.10940868 </v>
  </varray>
  <energy>
   <i name="e_fr_energy">   -170.71115550 </i>
   <i name="e_wo_entrp">   -170.71115550 </i>
   <i name="e_0_energy">   -170.71115550 </i>
  </energy>
  <time name="totalsc">  194.24  194.39</time>
 </calculation>
 <calculation>
  <scstep>
   <time name="total">   14.17   14.17</time>
   <energy>
    <i name="alphaZ">    116.88363098 </i>
    <i name="ewald">  -4688.78494116 </i>
    <i name="hartreedc">  -2258.47228850 </i>
    <i name="XCdc">   -359.53662743 </i>
    <i name="pawpsdc">  12428.86469899 </i>
    <i name="pawaedc"> -11610.05637426 </i>
    <i name="eentropy">     -0.00000000 </i>
    <i name="bandstr">   -956.26001249 </i>
    <i name="atom">   7160.47832104 </i>
    <i name="e_fr_energy">   -166.88359282 </i>
    <i name="e_wo_entrp">   -166.88359282 </i>
    <i name="e_0_energy">   -166.88359282 </i>
   </energy>
  </scstep>
  <scstep>
   <time name="total">   14.11   14.12</time>
   <energy>
    <i name="e_fr_energy">   -170.33350154 </i>
    <i name="e_wo_entrp">   -170.33350154 </i>
    <i name="e_0_energy">   -170.33350154 </i>
   </energy>
  </scstep>
  <scstep>
   <time name="total">   14.10   14.11</time>
   <energy>
    <i name="e_fr_energy">   -171.13489344 </i>
    <i name="e_wo_entrp">   -171.13489344 </i>
    <i name="e_0_energy">   -171.13489344 </i>
   </energy>
  </scstep>
  <scstep>
   <time name="total">   14.11   14.12</time>
   <energy>
    <i name="e_fr_energy">   -171.26667043 </i>
    <i name="e_wo_entrp">   -171.26667043 </i>
    <i name="e_0_energy">   -171.26667043 </i>
   </energy>
  </scstep>
  <scstep>
   <time name="total">   14.12   14.13</time>
   <energy>
    <i name="e_fr_energy">   -171.29082107 </i>
    <i name="e_wo_entrp">   -171.29082107 </i>
    <i name="e_0_energy">   -171.29082107 </i>
   </energy>
  </scstep>
  <scstep>
   <time name="total">   14.12   14.13</time>
   <energy>
    <i name="e_fr_energy">   -171.29615533 </i>
    <i name="e_wo_entrp">   -171.29615533 </i>
    <i name="e_0_energy">   -171.29615533 </i>
   </energy>
  </scstep>
  <scstep>
   <time name="total">   14.10   14.11</time>
   <energy>
    <i name="e_fr_energy">   -171.29776891 </i>
    <i name="e_wo_entrp">   -171.29776891 </i>
    <i name="e_0_energy">   -171.29776891 </i>
   </energy>
  </scstep>
  <scstep>
   <time name="total">   14.13   14.13</time>
   <energy>
    <i name="e_fr_energy">   -171.29826574 </i>
    <i name="e_wo_entrp">   -171.29826574 </i>
    <i name="e_0_energy">   -171.29826574 </i>
   </energy>
  </scstep>
  <scstep>
   <time name="total">   14.15   14.16</time>
   <energy>
    <i name="e_fr_energy">   -171.29839061 </i>
    <i name="e_wo_entrp">   -171.29839061 </i>
    <i name="e_0_energy">   -171.29839061 </i>
   </energy>
  </scstep>
  <scstep>
   <time name="total">   14.13   14.14</time>
   <energy>
    <i name="e_fr_energy">   -171.29841694 </i>
    <i name="e_wo_entrp">   -171.29841694 </i>
    <i name="e_0_energy">   -171.29841694 </i>
   </energy>
  </scstep>
  <scstep>
   <time name="total">   14.11   14.12</time>
   <energy>
    <i name="e_fr_energy">   -171.29842248 </i>
    <i name="e_wo_entrp">   -171.29842248 </i>
    <i name="e_0_energy">   -171.29842248 </i>
   </energy>
  </scstep>
  <scstep>
   <time name="total">   15.36   15.37</time>
   <energy>
    <i name="alphaZ">    116.88363098 </i>
    <i name="ewald">  -4688.78494116 </i>
    <i name="hartreedc">  -2279.72346507 </i>
    <i name="XCdc">   -359.41330519 </i>
    <i name="pawpsdc">  11721.65038403 </i>
    <i name="pawaedc"> -10902.94269018 </i>
    <i name="eentropy">     -0.00000000 </i>
    <i name="bandstr">   -939.44635820 </i>
    <i name="atom">   7160.47832104 </i>
    <i name="e_fr_energy">   -171.29842375 </i>
    <i name="e_wo_entrp">   -171.29842375 </i>
    <i name="e_0_energy">   -171.29842375 </i>
   </energy>
  </scstep>
  <structure>
   <crystal>
    <varray name="basis" >
     <v>       8.88213749      -0.00003915      -0.00010346 </v>
     <v>      -0.00003915       8.88221679      -0.00038656 </v>
     <v>      -0.00014606      -0.00054576      12.53038634 </v>
    </varray>
    <i name="volume">    988.56065406 </i>
    <varray name="rec_basis" >
     <v>       0.11258551       0.00000050       0.00000131 </v>
     <v>       0.00000050       0.11258451       0.00000490 </v>
     <v>       0.00000093       0.00000347       0.07980600 </v>
    </varray>
   </crystal>
   <varray name="positions" >
    <v>       0.99700302       0.50715419       0.01962817 </v>
    <v>       0.50621790       0.01037707       0.01962969 </v>
    <v>       0.99700333       0.50715396       0.51962820 </v>
    <v>       0.50621771       0.01037693       0.51962968 </v>
    <v>       0.89154114       0.60090332       0.88869710 </v>
    <v>       0.10150861       0.40662780       0.89106433 </v>
    <v>       0.16339577       0.35261850       0.01797297 </v>
    <v>       0.83093400       0.66226493       0.01399026 </v>
    <v>       0.99730794       0.50956757       0.10688644 </v>
    <v>       0.41239797       0.90483704       0.88871907 </v>
    <v>       0.60667297       0.11480247       0.89104068 </v>
    <v>       0.66066281       0.17667232       0.01798356 </v>
    <v>       0.35101594       0.84421296       0.01398089 </v>
    <v>       0.50371899       0.01058686       0.10688647 </v>
    <v>       0.89154115       0.60090333       0.38869702 </v>
    <v>       0.10150862       0.40662781       0.39106441 </v>
    <v>       0.16339571       0.35261856       0.51797292 </v>
    <v>       0.83093393       0.66226501       0.51399031 </v>
    <v>       0.99730797       0.50956755       0.60688645 </v>
    <v>       0.41239796       0.90483704       0.38871912 </v>
    <v>       0.60667296       0.11480247       0.39104064 </v>
    <v>       0.66066285       0.17667237       0.51798359 </v>
    <v>       0.35101597       0.84421300       0.51398087 </v>
    <v>       0.50371896       0.01058685       0.60688647 </v>
    <v>       0.27779808       0.22222266       0.24992309 </v>
    <v>       0.72228786       0.77782167       0.24988439 </v>
    <v>       0.77782360       0.27783744       0.24987598 </v>
    <v>       0.22222020       0.72232346       0.24992983 </v>
    <v>       0.00003043       0.00001862       0.00000983 </v>
    <v>       0.49997253       0.50006019       0.00001787 </v>
    <v>       0.27779808       0.22222266       0.74992297 </v>
    <v>       0.72228786       0.77782165       0.74988445 </v>
    <v>       0.77782360       0.27783744       0.74987601 </v>
    <v>       0.22222020       0.72232345       0.74992974 </v>
    <v>       0.00003058       0.00001868       0.50000983 </v>
    <v>       0.49997235       0.50006019       0.50001788 </v>
    <v>       0.09455035       0.41805709       0.97224007 </v>
    <v>       0.89914291       0.59341183       0.97016729 </v>
    <v>       0.59511353       0.10771262       0.97229554 </v>
    <v>       0.41975993       0.91231022       0.97011454 </v>
    <v>       0.09455049       0.41805701       0.47224008 </v>
    <v>       0.89914306       0.59341176       0.47016729 </v>
    <v>       0.59511342       0.10771259       0.47229552 </v>
    <v>       0.41975983       0.91231020       0.47011453 </v>
    <v>       0.00003545      -0.00001611       0.24999489 </v>
    <v>       0.49996210       0.50001804       0.24999212 </v>
    <v>       0.00003545      -0.00001612       0.74999488 </v>
    <v>       0.49996210       0.50001805       0.74999212 </v>
   </varray>
  </structure>
  <varray name="forces" >
   <v>      -0.00753194      -0.00664863       0.00288745 </v>
   <v>      -0.06215420      -0.08951686       0.00469118 </v>
   <v>      -0.00766398      -0.00650422       0.00286328 </v>
   <v>      -0.06212754      -0.08949794       0.00468591 </v>
   <v>      -0.04357934       0.03340042       0.04847005 </v>
   <v>       0.06945294      -0.04247895       0.02458931 </v>
   <v>       0.06061667      -0.02836229      -0.05213688 </v>
   <v>      -0.01541498      -0.02192022      -0.04385594 </v>
   <v>       0.00613723       0.00567877       0.02123652 </v>
   <v>      -0.02779146      -0.04266897       0.03940710 </v>
   <v>       0.04643046       0.06878076       0.03409704 </v>
   <v>       0.00649666       0.03452980      -0.05071877 </v>
   <v>      -0.00165533      -0.03986681      -0.04348835 </v>
   <v>      -0.00293680       0.00187121       0.02148237 </v>
   <v>      -0.04356620       0.03339380       0.04849561 </v>
   <v>       0.06946002      -0.04248236       0.02453009 </v>
   <v>       0.06068076      -0.02841918      -0.05209302 </v>
   <v>      -0.01535352      -0.02197642      -0.04389583 </v>
   <v>       0.00615246       0.00567036       0.02125560 </v>
   <v>      -0.02779481      -0.04267299       0.03938312 </v>
   <v>       0.04642205       0.06877103       0.03407625 </v>
   <v>       0.00646792       0.03449858      -0.05073598 </v>
   <v>      -0.00167558      -0.03988867      -0.04348302 </v>
   <v>      -0.00294784       0.00185942       0.02149358 </v>
   <v>       0.04305670      -0.02431870      -0.09916907 </v>
   <v>      -0.06648379       0.06403724      -0.14870597 </v>
   <v>       0.06463272       0.07706331      -0.15825125 </v>
   <v>      -0.02754935      -0.03558487      -0.09119696 </v>
   <v>       0.02647483       0.01718339       0.01146901 </v>
   <v>      -0.02403653       0.05260612       0.02156465 </v>
   <v>       0.04305574      -0.02432193      -0.09892838 </v>
   <v>      -0.06647488       0.06404233      -0.14848646 </v>
   <v>       0.06462759       0.07705482      -0.15797243 </v>
   <v>      -0.02755789      -0.03558066      -0.09101160 </v>
   <v>       0.02650834       0.01714760       0.01144350 </v>
   <v>      -0.02406518       0.05265469       0.02152509 </v>
   <v>      -0.17529901       0.03670299       0.12483099 </v>
   <v>       0.14204346      -0.02930598       0.11212935 </v>
   <v>      -0.03543820      -0.17628861       0.11746819 </v>
   <v>       0.02670916       0.14294660       0.11957815 </v>
   <v>      -0.17530396       0.03673640       0.12478115 </v>
   <v>       0.14206153      -0.02928945       0.11213646 </v>
   <v>      -0.03545008      -0.17631498       0.11747189 </v>
   <v>       0.02669522       0.14291957       0.11955984 </v>
   <v>       0.03186022      -0.01450328      -0.00655601 </v>
   <v>      -0.03402497       0.01668538      -0.01028317 </v>
   <v>       0.03185967      -0.01450431      -0.00645326 </v>
   <v>      -0.03402500       0.01668271      -0.01018039 </v>
  </varray>
  <varray name="stress" >
   <v>      -0.78651022      -0.01935293      -0.28339742 </v>
   <v>      -0.01935316      -0.73206354      -0.61234974 </v>
   <v>      -0.28339818      -0.61234996      -3.62820001 </v>
  </varray>
  <energy>
   <i name="e_fr_energy">   -171.29842375 </i>
   <i name="e_wo_entrp">   -171.29842375 </i>
   <i name="e_0_energy">   -171.29842375 </i>
  </energy>
  <time name="totalsc">  194.16  194.29</time>
 </calculation>
 <calculation>
  <scstep>
   <time name="total">   14.12   14.12</time>
   <energy>
    <i name="alphaZ">    117.23362592 </i>
    <i name="ewald">  -4688.56956980 </i>
    <i name="hartreedc">  -2281.36616289 </i>
    <i name="XCdc">   -359.14183964 </i>
    <i name="pawpsdc">  11721.91017607 </i>
    <i name="pawaedc"> -10903.29523735 </i>
    <i name="eentropy">     -0.00000000 </i>
    <i name="bandstr">   -938.26429414 </i>
    <i name="atom">   7160.47832104 </i>
    <i name="e_fr_energy">   -171.01498079 </i>
    <i name="e_wo_entrp">   -171.01498079 </i>
    <i name="e_0_energy">   -171.01498079 </i>
   </energy>
  </scstep>
  <scstep>
   <time name="total">   14.13   14.14</time>
   <energy>
    <i name="e_fr_energy">   -171.23391430 </i>
    <i name="e_wo_entrp">   -171.23391430 </i>
    <i name="e_0_energy">   -171.23391430 </i>
   </energy>
  </scstep>
  <scstep>
   <time name="total">   14.11   14.12</time>
   <energy>
    <i name="e_fr_energy">   -171.30048880 </i>
    <i name="e_wo_entrp">   -171.30048880 </i>
    <i name="e_0_energy">   -171.30048880 </i>
   </energy>
  </scstep>
  <scstep>
   <time name="total">   14.12   14.13</time>
   <energy>
    <i name="e_fr_energy">   -171.30860469 </i>
    <i name="e_wo_entrp">   -171.30860469 </i>
    <i name="e_0_energy">   -171.30860469 </i>
   </energy>
  </scstep>
  <scstep>
   <time name="total">   14.12   14.13</time>
   <energy>
    <i name="e_fr_energy">   -171.31063994 </i>
    <i name="e_wo_entrp">   -171.31063994 </i>
    <i name="e_0_energy">   -171.31063994 </i>
   </energy>
  </scstep>
  <scstep>
   <time name="total">   14.10   14.11</time>
   <energy>
    <i name="e_fr_energy">   -171.31126948 </i>
    <i name="e_wo_entrp">   -171.31126948 </i>
    <i name="e_0_energy">   -171.31126948 </i>
   </energy>
  </scstep>
  <scstep>
   <time name="total">   14.13   14.14</time>
   <energy>
    <i name="e_fr_energy">   -171.31145203 </i>
    <i name="e_wo_entrp">   -171.31145203 </i>
    <i name="e_0_energy">   -171.31145203 </i>
   </energy>
  </scstep>
  <scstep>
   <time name="total">   14.12   14.13</time>
   <energy>
    <i name="e_fr_energy">   -171.31149687 </i>
    <i name="e_wo_entrp">   -171.31149687 </i>
    <i name="e_0_energy">   -171.31149687 </i>
   </energy>
  </scstep>
  <scstep>
   <time name="total">   14.11   14.11</time>
   <energy>
    <i name="e_fr_energy">   -171.31150622 </i>
    <i name="e_wo_entrp">   -171.31150622 </i>
    <i name="e_0_energy">   -171.31150622 </i>
   </energy>
  </scstep>
  <scstep>
   <time name="total">   15.38   15.39</time>
   <energy>
    <i name="alphaZ">    117.23362592 </i>
    <i name="ewald">  -4688.56956980 </i>
    <i name="hartreedc">  -2281.98678744 </i>
    <i name="XCdc">   -359.06290066 </i>
    <i name="pawpsdc">  11787.78888950 </i>
    <i name="pawaedc"> -10969.12218020 </i>
    <i name="eentropy">     -0.00000000 </i>
    <i name="bandstr">   -938.07090665 </i>
    <i name="atom">   7160.47832104 </i>
    <i name="e_fr_energy">   -171.31150830 </i>
    <i name="e_wo_entrp">   -171.31150830 </i>
    <i name="e_0_energy">   -171.31150830 </i>
   </energy>
  </scstep>
  <structure>
   <crystal>
    <varray name="basis" >
     <v>       8.87855313      -0.00014509      -0.00145875 </v>
     <v>      -0.00014507       8.87891782      -0.00338290 </v>
     <v>      -0.00205832      -0.00477379      12.50266684 </v>
    </varray>
    <i name="volume">    985.60935725 </i>
    <varray name="rec_basis" >
     <v>       0.11263097       0.00000185       0.00001854 </v>
     <v>       0.00000185       0.11262635       0.00004300 </v>
     <v>       0.00001314       0.00003047       0.07998295 </v>
    </varray>
   </crystal>
   <varray name="positions" >
    <v>       0.99693955       0.50714968       0.01984553 </v>
    <v>       0.50594488       0.00997656       0.01985351 </v>
    <v>       0.99693938       0.50715001       0.51984549 </v>
    <v>       0.50594473       0.00997645       0.51985349 </v>
    <v>       0.89132655       0.60106636       0.88886285 </v>
    <v>       0.10185396       0.40641823       0.89114210 </v>
    <v>       0.16359158       0.35258103       0.01771551 </v>
    <v>       0.83097450       0.66203466       0.01376141 </v>
    <v>       0.99734013       0.50959241       0.10686557 </v>
    <v>       0.41226726       0.90463106       0.88886480 </v>
    <v>       0.60690707       0.11514832       0.89113922 </v>
    <v>       0.66059859       0.17674528       0.01773508 </v>
    <v>       0.35113661       0.84413908       0.01374941 </v>
    <v>       0.50370706       0.01059683       0.10686640 </v>
    <v>       0.89132662       0.60106633       0.38886282 </v>
    <v>       0.10185401       0.40641822       0.39114202 </v>
    <v>       0.16359179       0.35258086       0.51771558 </v>
    <v>       0.83097469       0.66203451       0.51376135 </v>
    <v>       0.99734024       0.50959235       0.60686564 </v>
    <v>       0.41226722       0.90463105       0.38886479 </v>
    <v>       0.60690703       0.11514828       0.39113909 </v>
    <v>       0.66059852       0.17674521       0.51773507 </v>
    <v>       0.35113655       0.84413903       0.51374939 </v>
    <v>       0.50370698       0.01059676       0.60686643 </v>
    <v>       0.27801361       0.22210128       0.24956943 </v>
    <v>       0.72195417       0.77814279       0.24935397 </v>
    <v>       0.77814832       0.27822462       0.24931111 </v>
    <v>       0.22208309       0.72214572       0.24960483 </v>
    <v>       0.00016404       0.00010488       0.00005114 </v>
    <v>       0.49985129       0.50032557       0.00009528 </v>
    <v>       0.27801361       0.22210127       0.74957004 </v>
    <v>       0.72195422       0.77814279       0.74935477 </v>
    <v>       0.77814829       0.27822459       0.74931207 </v>
    <v>       0.22208305       0.72214573       0.74960530 </v>
    <v>       0.00016441       0.00010480       0.50005106 </v>
    <v>       0.49985091       0.50032579       0.50009517 </v>
    <v>       0.09392870       0.41799801       0.97270806 </v>
    <v>       0.89961200       0.59349863       0.97059464 </v>
    <v>       0.59513062       0.10703513       0.97276347 </v>
    <v>       0.41961384       0.91273412       0.97054330 </v>
    <v>       0.09392888       0.41799805       0.47270791 </v>
    <v>       0.89961229       0.59349861       0.47059466 </v>
    <v>       0.59513042       0.10703496       0.47276345 </v>
    <v>       0.41961363       0.91273398       0.47054322 </v>
    <v>       0.00019575      -0.00008908       0.24997150 </v>
    <v>       0.49979089       0.50010177       0.24995550 </v>
    <v>       0.00019575      -0.00008908       0.74997182 </v>
    <v>       0.49979089       0.50010176       0.74995582 </v>
   </varray>
  </structure>
  <varray name="forces" >
   <v>      -0.01181215       0.00507700       0.13109371 </v>
   <v>       0.13506379       0.13871234       0.12888115 </v>
   <v>      -0.01146175       0.00477191       0.13113797 </v>
   <v>       0.13498308       0.13863078       0.12888823 </v>
   <v>      -0.00953130       0.00365481       0.09339506 </v>
   <v>       0.02022990       0.00045911       0.13220805 </v>
   <v>       0.06904704      -0.04167101       0.05409055 </v>
   <v>      -0.11122058       0.08232096       0.11616266 </v>
   <v>       0.00027199       0.01062122       0.20920564 </v>
   <v>      -0.00448500      -0.01547912       0.08620386 </v>
   <v>      -0.00258952       0.01290085       0.14125082 </v>
   <v>       0.03925485       0.06240778       0.08591655 </v>
   <v>      -0.08651638      -0.11801962       0.08589118 </v>
   <v>      -0.01701597      -0.01318773       0.21232860 </v>
   <v>      -0.00952407       0.00365224       0.09341643 </v>
   <v>       0.02023987       0.00045637       0.13220501 </v>
   <v>       0.06896682      -0.04159283       0.05401465 </v>
   <v>      -0.11124805       0.08235263       0.11618276 </v>
   <v>       0.00026444       0.01063453       0.20915459 </v>
   <v>      -0.00449855      -0.01549106       0.08619727 </v>
   <v>      -0.00260344       0.01289150       0.14130753 </v>
   <v>       0.03923011       0.06238297       0.08589979 </v>
   <v>      -0.08653599      -0.11803818       0.08589348 </v>
   <v>      -0.01702482      -0.01319589       0.21229742 </v>
   <v>       0.04038649      -0.02275667      -0.09266449 </v>
   <v>      -0.06316325       0.06051723      -0.13836674 </v>
   <v>       0.06003912       0.07253019      -0.14545866 </v>
   <v>      -0.02636385      -0.03362009      -0.08626460 </v>
   <v>       0.02822835       0.01688558       0.00842794 </v>
   <v>      -0.02396112       0.05111348       0.01732239 </v>
   <v>       0.04037207      -0.02276799      -0.09282061 </v>
   <v>      -0.06316363       0.06052750      -0.13850770 </v>
   <v>       0.06006447       0.07252248      -0.14558042 </v>
   <v>      -0.02636425      -0.03361242      -0.08644320 </v>
   <v>       0.02825972       0.01687100       0.00847133 </v>
   <v>      -0.02398810       0.05112701       0.01734041 </v>
   <v>       0.04978120      -0.15628291      -0.25873195 </v>
   <v>       0.02771490       0.04370048      -0.25090700 </v>
   <v>       0.04403056      -0.07287156      -0.23028098 </v>
   <v>      -0.15588868      -0.09090627      -0.28045631 </v>
   <v>       0.04974042      -0.15622138      -0.25853055 </v>
   <v>       0.02757148       0.04384648      -0.25102257 </v>
   <v>       0.04407634      -0.07281322      -0.23031645 </v>
   <v>      -0.15584300      -0.09085329      -0.28038447 </v>
   <v>       0.02434729      -0.01013154      -0.00737714 </v>
   <v>      -0.02585349       0.01403338      -0.01157440 </v>
   <v>       0.02434630      -0.01012912      -0.00745068 </v>
   <v>      -0.02585365       0.01404010      -0.01164610 </v>
  </varray>
  <varray name="stress" >
   <v>       1.56182720      -0.02202514      -0.04945975 </v>
   <v>      -0.02202548       1.62274273      -0.00212037 </v>
   <v>      -0.04946060      -0.00212000      -0.25055112 </v>
  </varray>
  <energy>
   <i name="e_fr_energy">   -171.31150830 </i>
   <i name="e_wo_entrp">   -171.31150830 </i>
   <i name="e_0_energy">   -171.31150830 </i>
  </energy>
  <time name="totalsc">  165.91  166.01</time>
 </calculation>
 <calculation>
  <scstep>
   <time name="total">   14.17   14.17</time>
   <energy>
    <i name="alphaZ">    117.19037241 </i>
    <i name="ewald">  -4688.59911138 </i>
    <i name="hartreedc">  -2281.75487068 </i>
    <i name="XCdc">   -359.09796166 </i>
    <i name="pawpsdc">  11794.66939282 </i>
    <i name="pawaedc"> -10975.99027380 </i>
    <i name="eentropy">     -0.00000000 </i>
    <i name="bandstr">   -938.20312069 </i>
    <i name="atom">   7160.47832104 </i>
    <i name="e_fr_energy">   -171.30725194 </i>
    <i name="e_wo_entrp">   -171.30725194 </i>
    <i name="e_0_energy">   -171.30725194 </i>
   </energy>
  </scstep>
  <scstep>
   <time name="total">   14.15   14.16</time>
   <energy>
    <i name="e_fr_energy">   -171.31059513 </i>
    <i name="e_wo_entrp">   -171.31059513 </i>
    <i name="e_0_energy">   -171.31059513 </i>
   </energy>
  </scstep>
  <scstep>
   <time name="total">   14.11   14.11</time>
   <energy>
    <i name="e_fr_energy">   -171.31161072 </i>
    <i name="e_wo_entrp">   -171.31161072 </i>
    <i name="e_0_energy">   -171.31161072 </i>
   </energy>
  </scstep>
  <scstep>
   <time name="total">   14.10   14.11</time>
   <energy>
    <i name="e_fr_energy">   -171.31173341 </i>
    <i name="e_wo_entrp">   -171.31173341 </i>
    <i name="e_0_energy">   -171.31173341 </i>
   </energy>
  </scstep>
  <scstep>
   <time name="total">   14.08   14.09</time>
   <energy>
    <i name="e_fr_energy">   -171.31176371 </i>
    <i name="e_wo_entrp">   -171.31176371 </i>
    <i name="e_0_energy">   -171.31176371 </i>
   </energy>
  </scstep>
  <scstep>
   <time name="total">   14.12   14.12</time>
   <energy>
    <i name="e_fr_energy">   -171.31177294 </i>
    <i name="e_wo_entrp">   -171.31177294 </i>
    <i name="e_0_energy">   -171.31177294 </i>
   </energy>
  </scstep>
  <scstep>
   <time name="total">   14.13   14.13</time>
   <energy>
    <i name="e_fr_energy">   -171.31177551 </i>
    <i name="e_wo_entrp">   -171.31177551 </i>
    <i name="e_0_energy">   -171.31177551 </i>
   </energy>
  </scstep>
  <scstep>
   <time name="total">   15.35   15.36</time>
   <energy>
    <i name="alphaZ">    117.19037241 </i>
    <i name="ewald">  -4688.59911138 </i>
    <i name="hartreedc">  -2281.70648055 </i>
    <i name="XCdc">   -359.10585146 </i>
    <i name="pawpsdc">  11779.25966845 </i>
    <i name="pawaedc"> -10960.58796081 </i>
    <i name="eentropy">     -0.00000000 </i>
    <i name="bandstr">   -938.24073385 </i>
    <i name="atom">   7160.47832104 </i>
    <i name="e_fr_energy">   -171.31177615 </i>
    <i name="e_wo_entrp">   -171.31177615 </i>
    <i name="e_0_energy">   -171.31177615 </i>
   </energy>
  </scstep>
  <structure>
   <crystal>
    <varray name="basis" >
     <v>       8.87899516      -0.00013203      -0.00129161 </v>
     <v>      -0.00013201       8.87932466      -0.00301338 </v>
     <v>      -0.00182249      -0.00425238      12.50608528 </v>
    </varray>
    <i name="volume">    985.97313341 </i>
    <varray name="rec_basis" >
     <v>       0.11262536       0.00000168       0.00001641 </v>
     <v>       0.00000168       0.11262119       0.00003829 </v>
     <v>       0.00001163       0.00002714       0.07996108 </v>
    </varray>
   </crystal>
   <varray name="positions" >
    <v>       0.99694737       0.50715023       0.01981867 </v>
    <v>       0.50597856       0.01002595       0.01982586 </v>
    <v>       0.99694727       0.50715049       0.51981863 </v>
    <v>       0.50597841       0.01002584       0.51982584 </v>
    <v>       0.89135302       0.60104624       0.88884236 </v>
    <v>       0.10181135       0.40644408       0.89113249 </v>
    <v>       0.16356743       0.35258567       0.01774733 </v>
    <v>       0.83096951       0.66206308       0.01378971 </v>
    <v>       0.99733616       0.50958935       0.10686815 </v>
    <v>       0.41228338       0.90465647       0.88884680 </v>
    <v>       0.60687819       0.11510565       0.89112703 </v>
    <v>       0.66060652       0.17673629       0.01776579 </v>
    <v>       0.35112173       0.84414821       0.01377802 </v>
    <v>       0.50370853       0.01059560       0.10686888 </v>
    <v>       0.89135309       0.60104621       0.38884232 </v>
    <v>       0.10181140       0.40644407       0.39113243 </v>
    <v>       0.16356760       0.35258553       0.51774739 </v>
    <v>       0.83096967       0.66206296       0.51378966 </v>
    <v>       0.99733626       0.50958929       0.60686821 </v>
    <v>       0.41228335       0.90465645       0.38884680 </v>
    <v>       0.60687815       0.11510561       0.39112690 </v>
    <v>       0.66060646       0.17673623       0.51776578 </v>
    <v>       0.35112168       0.84414817       0.51377800 </v>
    <v>       0.50370845       0.01059554       0.60686891 </v>
    <v>       0.27798703       0.22211628       0.24961314 </v>
    <v>       0.72199535       0.77810320       0.24941952 </v>
    <v>       0.77810827       0.27817689       0.24938091 </v>
    <v>       0.22210001       0.72216767       0.24964500 </v>
    <v>       0.00014756       0.00009424       0.00004603 </v>
    <v>       0.49986625       0.50029282       0.00008571 </v>
    <v>       0.27798703       0.22211627       0.74961366 </v>
    <v>       0.72199539       0.77810320       0.74942023 </v>
    <v>       0.77810825       0.27817686       0.74938175 </v>
    <v>       0.22209998       0.72216767       0.74964540 </v>
    <v>       0.00014790       0.00009417       0.50004596 </v>
    <v>       0.49986589       0.50029302       0.50008561 </v>
    <v>       0.09400538       0.41800527       0.97265023 </v>
    <v>       0.89955412       0.59348789       0.97054182 </v>
    <v>       0.59512850       0.10711868       0.97270565 </v>
    <v>       0.41963185       0.91268180       0.97049029 </v>
    <v>       0.09400556       0.41800530       0.47265010 </v>
    <v>       0.89955439       0.59348787       0.47054183 </v>
    <v>       0.59512831       0.10711853       0.47270564 </v>
    <v>       0.41963166       0.91268167       0.47049023 </v>
    <v>       0.00017597      -0.00008007       0.24997439 </v>
    <v>       0.49981201       0.50009144       0.24996003 </v>
    <v>       0.00017597      -0.00008008       0.74997467 </v>
    <v>       0.49981202       0.50009143       0.74996030 </v>
   </varray>
  </structure>
  <varray name="forces" >
   <v>      -0.01131773       0.00346423       0.11494648 </v>
   <v>       0.11086688       0.11068183       0.11304006 </v>
   <v>      -0.01107031       0.00322967       0.11498855 </v>
[...]
       <r>    4.5044    0.0000 </r>
       <r>    4.5049    0.0000 </r>
       <r>    4.5142    0.0000 </r>
       <r>    4.5143    0.0000 </r>
       <r>    5.1682    0.0000 </r>
       <r>    5.1700    0.0000 </r>
       <r>    5.2958    0.0000 </r>
       <r>    5.2985    0.0000 </r>
       <r>    5.5229    0.0000 </r>
       <r>    5.5270    0.0000 </r>
       <r>    5.9752    0.0000 </r>
       <r>    5.9781    0.0000 </r>
       <r>    6.2228    0.0000 </r>
       <r>    6.2265    0.0000 </r>
       <r>    6.4190    0.0000 </r>
       <r>    6.4234    0.0000 </r>
       <r>    6.7749    0.0000 </r>
       <r>    6.7798    0.0000 </r>
       <r>    6.9020    0.0000 </r>
       <r>    6.9036    0.0000 </r>
       <r>    6.9687    0.0000 </r>
       <r>    6.9723    0.0000 </r>
       <r>    7.1772    0.0000 </r>
       <r>    7.1818    0.0000 </r>
       <r>    7.3394    0.0000 </r>
       <r>    7.3402    0.0000 </r>
       <r>    7.3841    0.0000 </r>
       <r>    7.3880    0.0000 </r>
      </set>
     </set>
    </set>
   </array>
  </eigenvalues>
  <separator name="orbital magnetization" >
   <v name="MAGDIPOLOUT">      0.00000000      0.00000000      0.00000000</v>
  </separator>
  <dos>
   <i name="efermi">      2.59883605 </i>
   <total>
    <array>
     <dimension dim="1">gridpoints</dimension>
     <dimension dim="2">spin</dimension>
     <field>energy</field>
     <field>total</field>
     <field>integrated</field>
     <set>
      <set comment="spin 1">
       <r>   -20.1178     0.0000     0.0000 </r>
       <r>   -20.0212     0.0000     0.0000 </r>
       <r>   -19.9246     0.0000     0.0000 </r>
       <r>   -19.8279     0.0000     0.0000 </r>
       <r>   -19.7313     0.0000     0.0000 </r>
       <r>   -19.6346     0.0000     0.0000 </r>
       <r>   -19.5380     0.0000     0.0000 </r>
       <r>   -19.4413     0.0000     0.0000 </r>
       <r>   -19.3447     0.0000     0.0000 </r>
       <r>   -19.2481     0.0000     0.0000 </r>
       <r>   -19.1514     0.0000     0.0000 </r>
       <r>   -19.0548     0.0000     0.0000 </r>
       <r>   -18.9581     0.0003     0.0000 </r>
       <r>   -18.8615     3.0402     0.2938 </r>
       <r>   -18.7649    65.4291     6.6170 </r>
       <r>   -18.6682    14.3012     7.9991 </r>
       <r>   -18.5716     0.0098     8.0000 </r>
       <r>   -18.4749     0.0000     8.0000 </r>
       <r>   -18.3783     0.0000     8.0000 </r>
       <r>   -18.2817     0.0000     8.0000 </r>
       <r>   -18.1850     0.0000     8.0000 </r>
       <r>   -18.0884     0.0000     8.0000 </r>
       <r>   -17.9917     0.0000     8.0000 </r>
       <r>   -17.8951     0.0000     8.0000 </r>
       <r>   -17.7984     0.0000     8.0000 </r>
       <r>   -17.7018     0.0000     8.0000 </r>
       <r>   -17.6052     0.0000     8.0000 </r>
       <r>   -17.5085     0.0000     8.0000 </r>
       <r>   -17.4119     0.0000     8.0000 </r>
       <r>   -17.3152     0.0000     8.0000 </r>
       <r>   -17.2186     0.0000     8.0000 </r>
       <r>   -17.1220     0.0000     8.0000 </r>
       <r>   -17.0253     0.0000     8.0000 </r>
       <r>   -16.9287     0.0000     8.0000 </r>
       <r>   -16.8320     0.0000     8.0000 </r>
       <r>   -16.7354     0.0454     8.0044 </r>
       <r>   -16.6388    24.6003    10.3818 </r>
       <r>   -16.5421    56.9907    15.8894 </r>
       <r>   -16.4455     1.1441    16.0000 </r>
       <r>   -16.3488     0.0000    16.0000 </r>
       <r>   -16.2522     0.0000    16.0000 </r>
       <r>   -16.1556     0.0000    16.0000 </r>
       <r>   -16.0589     0.0000    16.0000 </r>
       <r>   -15.9623     0.0000    16.0000 </r>
       <r>   -15.8656     0.0000    16.0000 </r>
       <r>   -15.7690     0.0000    16.0000 </r>
       <r>   -15.6723     0.0000    16.0000 </r>
       <r>   -15.5757     0.0000    16.0000 </r>
       <r>   -15.4791     0.0000    16.0000 </r>
       <r>   -15.3824     0.0000    16.0000 </r>
       <r>   -15.2858     0.0000    16.0000 </r>
       <r>   -15.1891     0.0000    16.0000 </r>
       <r>   -15.0925     0.0000    16.0000 </r>
       <r>   -14.9959     0.0000    16.0000 </r>
       <r>   -14.8992     0.0000    16.0000 </r>
       <r>   -14.8026     0.0000    16.0000 </r>
       <r>   -14.7059     0.0000    16.0000 </r>
       <r>   -14.6093     0.0000    16.0000 </r>
       <r>   -14.5127     0.0000    16.0000 </r>
       <r>   -14.4160     0.0000    16.0000 </r>
       <r>   -14.3194     0.0000    16.0000 </r>
       <r>   -14.2227     0.0000    16.0000 </r>
       <r>   -14.1261     0.0000    16.0000 </r>
       <r>   -14.0295     0.0000    16.0000 </r>
       <r>   -13.9328     0.0000    16.0000 </r>
       <r>   -13.8362     0.0000    16.0000 </r>
       <r>   -13.7395     0.0000    16.0000 </r>
       <r>   -13.6429     0.0000    16.0000 </r>
       <r>   -13.5462     0.0000    16.0000 </r>
       <r>   -13.4496     0.0000    16.0000 </r>
       <r>   -13.3530     0.0000    16.0000 </r>
       <r>   -13.2563     0.0000    16.0000 </r>
       <r>   -13.1597     0.0000    16.0000 </r>
       <r>   -13.0630     0.0000    16.0000 </r>
       <r>   -12.9664     0.0000    16.0000 </r>
       <r>   -12.8698     0.0000    16.0000 </r>
       <r>   -12.7731     0.0000    16.0000 </r>
       <r>   -12.6765     0.0000    16.0000 </r>
       <r>   -12.5798     0.0000    16.0000 </r>
       <r>   -12.4832     0.0000    16.0000 </r>
       <r>   -12.3866     0.0000    16.0000 </r>
       <r>   -12.2899     0.0000    16.0000 </r>
       <r>   -12.1933     0.0000    16.0000 </r>
       <r>   -12.0966     0.0000    16.0000 </r>
       <r>   -12.0000     0.0000    16.0000 </r>
       <r>   -11.9033     0.0000    16.0000 </r>
       <r>   -11.8067     0.0000    16.0000 </r>
       <r>   -11.7101     0.0000    16.0000 </r>
       <r>   -11.6134     0.0000    16.0000 </r>
       <r>   -11.5168     0.0000    16.0000 </r>
       <r>   -11.4201     0.0000    16.0000 </r>
       <r>   -11.3235     0.0000    16.0000 </r>
       <r>   -11.2269     0.0000    16.0000 </r>
       <r>   -11.1302     0.0000    16.0000 </r>
       <r>   -11.0336     0.0000    16.0000 </r>
       <r>   -10.9369     0.0000    16.0000 </r>
       <r>   -10.8403     0.1236    16.0119 </r>
       <r>   -10.7437     9.0125    16.8829 </r>
       <r>   -10.6470    46.6446    21.3907 </r>
       <r>   -10.5504    27.3932    24.0380 </r>
       <r>   -10.4537    19.7684    25.9484 </r>
       <r>   -10.3571    41.3461    29.9442 </r>
       <r>   -10.2605    32.6435    33.0989 </r>
       <r>   -10.1638    41.8760    37.1458 </r>
       <r>   -10.0672    35.0099    40.5292 </r>
       <r>    -9.9705    52.9459    45.6459 </r>
       <r>    -9.8739    23.5091    47.9179 </r>
       <r>    -9.7772     0.8494    48.0000 </r>
       <r>    -9.6806     0.0004    48.0000 </r>
       <r>    -9.5840     0.0000    48.0000 </r>
       <r>    -9.4873     0.0000    48.0000 </r>
       <r>    -9.3907     0.0000    48.0000 </r>
       <r>    -9.2940     0.0000    48.0000 </r>
       <r>    -9.1974     0.0000    48.0000 </r>
       <r>    -9.1008     0.0000    48.0000 </r>
       <r>    -9.0041     0.0000    48.0000 </r>
       <r>    -8.9075     0.0000    48.0000 </r>
       <r>    -8.8108     0.0064    48.0006 </r>
       <r>    -8.7142    10.4357    49.0091 </r>
       <r>    -8.6176    66.2908    55.4155 </r>
       <r>    -8.5209     6.0450    55.9997 </r>
       <r>    -8.4243     0.0027    56.0000 </r>
       <r>    -8.3276     0.0000    56.0000 </r>
       <r>    -8.2310     0.0103    56.0010 </r>
       <r>    -8.1344    14.5121    57.4035 </r>
       <r>    -8.0377    65.2655    63.7108 </r>
       <r>    -7.9411     2.9924    64.0000 </r>
       <r>    -7.8444     0.0002    64.0000 </r>
       <r>    -7.7478     0.0000    64.0000 </r>
       <r>    -7.6511     0.0000    64.0000 </r>
       <r>    -7.5545     0.0000    64.0000 </r>
       <r>    -7.4579     0.0000    64.0000 </r>
       <r>    -7.3612     0.0000    64.0000 </r>
       <r>    -7.2646     0.0000    64.0000 </r>
       <r>    -7.1679     0.0000    64.0000 </r>
       <r>    -7.0713     0.0000    64.0000 </r>
       <r>    -6.9747     0.0000    64.0000 </r>
       <r>    -6.8780     0.0000    64.0000 </r>
       <r>    -6.7814     0.0000    64.0000 </r>
       <r>    -6.6847     0.0000    64.0000 </r>
       <r>    -6.5881     0.0000    64.0000 </r>
       <r>    -6.4915     0.0009    64.0001 </r>
       <r>    -6.3948     5.2958    64.5119 </r>
       <r>    -6.2982    67.9443    71.0781 </r>
       <r>    -6.2015     9.5360    71.9996 </r>
       <r>    -6.1049     0.0037    72.0000 </r>
       <r>    -6.0083     0.0000    72.0000 </r>
       <r>    -5.9116     0.0418    72.0040 </r>
       <r>    -5.8150     0.9080    72.0918 </r>
       <r>    -5.7183     0.2023    72.1113 </r>
       <r>    -5.6217     1.4301    72.2496 </r>
       <r>    -5.5250     4.9569    72.7286 </r>
       <r>    -5.4284     3.5076    73.0676 </r>
       <r>    -5.3318     4.2711    73.4803 </r>
       <r>    -5.2351     6.5711    74.1154 </r>
       <r>    -5.1385     9.4966    75.0331 </r>
       <r>    -5.0418     7.3702    75.7454 </r>
       <r>    -4.9452     7.3352    76.4543 </r>
       <r>    -4.8486    50.9649    81.3796 </r>
       <r>    -4.7519    43.4578    85.5794 </r>
       <r>    -4.6553    11.0807    86.6502 </r>
       <r>    -4.5586     1.3078    86.7766 </r>
       <r>    -4.4620     0.9104    86.8646 </r>
       <r>    -4.3654     7.7933    87.6178 </r>
       <r>    -4.2687    70.3499    94.4164 </r>
       <r>    -4.1721    15.2222    95.8875 </r>
       <r>    -4.0754     0.0141    95.8889 </r>
       <r>    -3.9788     0.0000    95.8889 </r>
       <r>    -3.8821     0.0543    95.8941 </r>
       <r>    -3.7855     0.9295    95.9840 </r>
       <r>    -3.6889     0.1659    96.0000 </r>
       <r>    -3.5922     0.0001    96.0000 </r>
       <r>    -3.4956     0.0000    96.0000 </r>
       <r>    -3.3989     0.0000    96.0000 </r>
       <r>    -3.3023     0.0000    96.0000 </r>
       <r>    -3.2057     0.0000    96.0000 </r>
       <r>    -3.1090     0.0000    96.0000 </r>
       <r>    -3.0124     0.0000    96.0000 </r>
       <r>    -2.9157     0.0000    96.0000 </r>
       <r>    -2.8191     0.0000    96.0000 </r>
       <r>    -2.7225     0.0000    96.0000 </r>
       <r>    -2.6258     0.0000    96.0000 </r>
       <r>    -2.5292     0.0000    96.0000 </r>
       <r>    -2.4325     0.0000    96.0000 </r>
       <r>    -2.3359     0.0000    96.0000 </r>
       <r>    -2.2393     0.0000    96.0000 </r>
       <r>    -2.1426     0.0018    96.0002 </r>
       <r>    -2.0460     1.6288    96.1576 </r>
       <r>    -1.9493    14.8743    97.5950 </r>
       <r>    -1.8527    20.5216    99.5783 </r>
       <r>    -1.7560    10.3029   100.5740 </r>
       <r>    -1.6594     8.8514   101.4294 </r>
       <r>    -1.5628    23.8138   103.7308 </r>
       <r>    -1.4661    11.7230   104.8637 </r>
       <r>    -1.3695     8.6298   105.6977 </r>
       <r>    -1.2728     8.7047   106.5389 </r>
       <r>    -1.1762    31.1740   109.5516 </r>
       <r>    -1.0796    39.8632   113.4040 </r>
       <r>    -0.9829    24.8732   115.8078 </r>
       <r>    -0.8863    13.5503   117.1173 </r>
       <r>    -0.7896    20.0856   119.0584 </r>
       <r>    -0.6930    25.4093   121.5140 </r>
       <r>    -0.5964    30.3520   124.4472 </r>
       <r>    -0.4997    23.8518   126.7523 </r>
       <r>    -0.4031    24.0094   129.0726 </r>
       <r>    -0.3064    11.4139   130.1756 </r>
       <r>    -0.2098    31.0743   133.1787 </r>
       <r>    -0.1132    16.6630   134.7890 </r>
       <r>    -0.0165    51.7642   139.7916 </r>
       <r>     0.0801    42.6661   143.9148 </r>
       <r>     0.1768    35.0261   147.2998 </r>
       <r>     0.2734    42.7145   151.4278 </r>
       <r>     0.3701    20.9472   153.4521 </r>
       <r>     0.4667    22.3518   155.6122 </r>
       <r>     0.5633    59.8867   161.3997 </r>
       <r>     0.6600    60.6815   167.2641 </r>
       <r>     0.7566    26.3121   169.8069 </r>
       <r>     0.8533    15.3749   171.2927 </r>
       <r>     0.9499    14.9690   172.7393 </r>
       <r>     1.0465     6.5858   173.3758 </r>
       <r>     1.1432     4.7131   173.8313 </r>
       <r>     1.2398     3.8353   174.2019 </r>
       <r>     1.3365     1.5023   174.3471 </r>
       <r>     1.4331     3.2456   174.6608 </r>
       <r>     1.5297     2.3124   174.8842 </r>
       <r>     1.6264     3.5981   175.2320 </r>
       <r>     1.7230     3.3840   175.5590 </r>
       <r>     1.8197     3.3510   175.8828 </r>
       <r>     1.9163     0.0625   175.8889 </r>
       <r>     2.0130     0.0000   175.8889 </r>
       <r>     2.1096     0.0000   175.8889 </r>
       <r>     2.2062     0.0000   175.8889 </r>
       <r>     2.3029     0.1187   175.9004 </r>
       <r>     2.3995     0.9497   175.9921 </r>
       <r>     2.4962     0.0813   176.0000 </r>
       <r>     2.5928     0.0000   176.0000 </r>
       <r>     2.6894     0.0001   176.0000 </r>
       <r>     2.7861     0.2438   176.0236 </r>
       <r>     2.8827     1.8976   176.2070 </r>
       <r>     2.9794     0.2819   176.2342 </r>
       <r>     3.0760     3.1237   176.5361 </r>
       <r>     3.1726     6.9311   177.2059 </r>
       <r>     3.2693     5.5399   177.7413 </r>
       <r>     3.3659    12.2785   178.9279 </r>
       <r>     3.4626     4.3951   179.3526 </r>
       <r>     3.5592     8.5009   180.1742 </r>
       <r>     3.6558     3.9780   180.5586 </r>
       <r>     3.7525     1.0819   180.6632 </r>
       <r>     3.8491     3.5847   181.0096 </r>
       <r>     3.9458     2.0782   181.2104 </r>
       <r>     4.0424     7.7901   181.9633 </r>
       <r>     4.1391     8.9379   182.8271 </r>
       <r>     4.2357    15.5977   184.3344 </r>
       <r>     4.3323    10.0443   185.3051 </r>
       <r>     4.4290     5.8571   185.8712 </r>
       <r>     4.5256    27.7275   188.5508 </r>
       <r>     4.6223    48.3376   193.2222 </r>
       <r>     4.7189     8.0095   193.9962 </r>
       <r>     4.8155     0.0390   194.0000 </r>
       <r>     4.9122     0.0000   194.0000 </r>
       <r>     5.0088     0.1613   194.0156 </r>
       <r>     5.1055     3.2592   194.3306 </r>
       <r>     5.2021    16.0241   195.8792 </r>
       <r>     5.2987    12.7535   197.1117 </r>
       <r>     5.3954    12.3912   198.3092 </r>
       <r>     5.4920    15.0943   199.7679 </r>
       <r>     5.5887    26.9426   202.3716 </r>
       <r>     5.6853     9.3913   203.2792 </r>
       <r>     5.7819     5.3379   203.7951 </r>
       <r>     5.8786    13.9258   205.1409 </r>
       <r>     5.9752    13.3337   206.4295 </r>
       <r>     6.0719     8.1851   207.2205 </r>
       <r>     6.1685     8.0216   207.9957 </r>
       <r>     6.2652    17.4718   209.6842 </r>
       <r>     6.3618    19.5244   211.5710 </r>
       <r>     6.4584    26.8902   214.1697 </r>
       <r>     6.5551    16.0047   215.7165 </r>
       <r>     6.6517    17.3589   217.3940 </r>
       <r>     6.7484    19.8450   219.3119 </r>
       <r>     6.8450    17.2007   220.9742 </r>
       <r>     6.9416    34.0834   224.2680 </r>
       <r>     7.0383    33.2994   227.4861 </r>
       <r>     7.1349    17.0620   229.1350 </r>
       <r>     7.2316    25.3179   231.5818 </r>
       <r>     7.3282    32.4719   234.7199 </r>
       <r>     7.4248    34.9350   238.0960 </r>
       <r>     7.5215    13.0107   239.3534 </r>
       <r>     7.6181     6.4841   239.9800 </r>
       <r>     7.7148     0.2067   240.0000 </r>
       <r>     7.8114     0.0000   240.0000 </r>
       <r>     7.9080     0.0000   240.0000 </r>
       <r>     8.0047     0.0000   240.0000 </r>
       <r>     8.1013     0.0000   240.0000 </r>
       <r>     8.1980     0.0000   240.0000 </r>
       <r>     8.2946     0.0000   240.0000 </r>
       <r>     8.3913     0.0000   240.0000 </r>
       <r>     8.4879     0.0000   240.0000 </r>
       <r>     8.5845     0.0000   240.0000 </r>
       <r>     8.6812     0.0000   240.0000 </r>
       <r>     8.7778     0.0000   240.0000 </r>
       <r>     8.8745     0.0000   240.0000 </r>
      </set>
     </set>
    </array>
   </total>
  </dos>
 </calculation>
 <structure name="finalpos" >
  <crystal>
   <varray name="basis" >
    <v>       8.89050855       0.00023325       0.00606743 </v>
    <v>       0.00021038       8.89023005       0.00501000 </v>
    <v>       0.00847317       0.00685757      12.42363781 </v>
   </varray>
   <i name="volume">    981.94700029 </i>
   <varray name="rec_basis" >
    <v>       0.11247956      -0.00000262      -0.00007671 </v>
    <v>      -0.00000291       0.11248306      -0.00006209 </v>
    <v>      -0.00005493      -0.00004536       0.08049178 </v>
   </varray>
  </crystal>
  <varray name="positions" >
   <v>       0.00000780       0.50529384       0.02753921 </v>
   <v>       0.50168071       0.00590294       0.02743347 </v>
   <v>       0.00000917       0.50529175       0.52753904 </v>
   <v>       0.50167942       0.00590160       0.52743268 </v>
   <v>       0.89698511       0.60555321       0.89666028 </v>
   <v>       0.10098321       0.39929645       0.89810430 </v>
   <v>       0.15955090       0.34382445       0.02624500 </v>
   <v>       0.84031599       0.66656927       0.02393938 </v>
   <v>       0.00080145       0.50733374       0.11551788 </v>
   <v>       0.40373325       0.90586491       0.89467488 </v>
   <v>       0.60991244       0.10971571       0.89991912 </v>
   <v>       0.66320799       0.16534298       0.02914010 </v>
   <v>       0.34046868       0.84635124       0.02081328 </v>
   <v>       0.49808435       0.00467148       0.11539030 </v>
   <v>       0.89698748       0.60554989       0.39666030 </v>
   <v>       0.10098203       0.39929673       0.39810362 </v>
   <v>       0.15954803       0.34382691       0.52624705 </v>
   <v>       0.84031866       0.66656628       0.52394244 </v>
   <v>       0.00080005       0.50733462       0.61551716 </v>
   <v>       0.40373538       0.90586730       0.39467381 </v>
   <v>       0.60991061       0.10971416       0.39991856 </v>
   <v>       0.66320454       0.16533948       0.52914264 </v>
   <v>       0.34047107       0.84635392       0.52081531 </v>
   <v>       0.49808400       0.00467094       0.61538922 </v>
   <v>       0.27216697       0.23451801       0.23202518 </v>
   <v>       0.72939538       0.77729418       0.23171267 </v>
   <v>       0.77294106       0.27737044       0.23303363 </v>
   <v>       0.23013963       0.73458768       0.23071575 </v>
   <v>       0.00232573       0.00407949      -0.01896478 </v>
   <v>       0.49954356       0.50554159      -0.01910166 </v>
   <v>       0.27216944       0.23451631       0.73202034 </v>
   <v>       0.72939291       0.77729596       0.73170791 </v>
   <v>       0.77294158       0.27737238       0.73302906 </v>
   <v>       0.23013780       0.73458578       0.73071092 </v>
   <v>       0.00232572       0.00407814       0.48103355 </v>
   <v>       0.49954328       0.50554233       0.48089808 </v>
   <v>       0.09203975       0.41076763       0.97985755 </v>
   <v>       0.90714937       0.59765455       0.97853915 </v>
   <v>       0.59701473       0.09894578       0.98148747 </v>
   <v>       0.41012085       0.91418314       0.97671365 </v>
   <v>       0.09203733       0.41076930       0.47985681 </v>
   <v>       0.90714803       0.59765498       0.47853959 </v>
   <v>       0.59701496       0.09894602       0.48148701 </v>
   <v>       0.41012220       0.91418442       0.47671276 </v>
   <v>       0.00173589       0.00549734       0.23966003 </v>
   <v>       0.50077174       0.50624414       0.23988005 </v>
   <v>       0.00173593       0.00549721       0.73965757 </v>
   <v>       0.50077200       0.50624457       0.73987876 </v>
  </varray>
 </structure>
</modeling>
