tetra-FASnI3                            
           1
     8.882000    0.000000    0.000000
     0.000000    8.882000    0.000000
     0.000000    0.000000   12.540000
   C    H    I    N    Sn
     4    20    12     8     4
Direct configuration=     1
   0.99707273  0.50709300  0.01913876
   0.50619230  0.01035803  0.01913876
   0.99707273  0.50709300  0.51913876
   0.50619230  0.01035803  0.51913876
   0.89157847  0.60087818  0.88867624
   0.10144112  0.40666517  0.89106858
   0.16358928  0.35239811  0.01818182
   0.83066877  0.66257600  0.01419458
   0.99729791  0.50956992  0.10709729
   0.41240712  0.90486377  0.88867624
   0.60662013  0.11472641  0.89106858
   0.66088719  0.17687458  0.01818182
   0.35070930  0.84395406  0.01419458
   0.50371538  0.01058320  0.10709729
   0.89157847  0.60087818  0.38867624
   0.10144112  0.40666517  0.39106858
   0.16358928  0.35239811  0.51818182
   0.83066877  0.66257600  0.51419458
   0.99729791  0.50956992  0.60709729
   0.41240712  0.90486377  0.38867624
   0.60662013  0.11472641  0.39106858
   0.66088719  0.17687458  0.51818182
   0.35070930  0.84395406  0.51419458
   0.50371538  0.01058320  0.60709729
   0.27775276  0.22224724  0.25000000
   0.72235983  0.77775276  0.25000000
   0.77775276  0.27775276  0.25000000
   0.22224724  0.72235983  0.25000000
   0.00000000  0.00000000  0.00000000
   0.50000000  0.50000000  0.00000000
   0.27775276  0.22224724  0.75000000
   0.72235983  0.77775276  0.75000000
   0.77775276  0.27775276  0.75000000
   0.22224724  0.72235983  0.75000000
   0.00000000  0.00000000  0.50000000
   0.50000000  0.50000000  0.50000000
   0.09412295  0.41859941  0.97208931
   0.89957217  0.59288449  0.97001595
   0.59468588  0.10740824  0.97208931
   0.42040081  0.91285746  0.97001595
   0.09412295  0.41859941  0.47208931
   0.89957217  0.59288449  0.47001595
   0.59468588  0.10740824  0.47208931
   0.42040081  0.91285746  0.47001595
   0.00000000  0.00000000  0.25000000
   0.50000000  0.50000000  0.25000000
   0.00000000  0.00000000  0.75000000
   0.50000000  0.50000000  0.75000000
tetra-FASnI3                            
           1
     8.882676   -0.000193   -0.000509
    -0.000193    8.883066   -0.001901
    -0.000718   -0.002684   12.492717
   C    H    I    N    Sn
     4    20    12     8     4
Direct configuration=     2
   0.99673078  0.50739671  0.02158225
   0.50631896  0.01045454  0.02158975
   0.99673230  0.50739558  0.52158237
   0.50631803  0.01045387  0.52158974
   0.89139495  0.60100189  0.88878043
   0.10177296  0.40648150  0.89104730
   0.16263755  0.35348023  0.01713967
   0.83197242  0.66104570  0.01317383
   0.99734689  0.50955713  0.10604467
   0.41236221  0.90473260  0.88888998
   0.60687992  0.11510018  0.89092957
   0.65978356  0.17587900  0.01719126
   0.35221679  0.84522566  0.01312880
   0.50373278  0.01059995  0.10604480
   0.89139500  0.60100190  0.38878003
   0.10177302  0.40648151  0.39104770
   0.16263725  0.35348055  0.51713944
   0.83197210  0.66104605  0.51317407
   0.99734705  0.50955705  0.60604468
   0.41236215  0.90473261  0.38889022
   0.60687989  0.11510017  0.39092933
   0.65978374  0.17587923  0.51719142
   0.35221691  0.84522584  0.51312868
   0.50373267  0.01059990  0.60604479
   0.27797545  0.22212596  0.24961600
   0.72200579  0.77809082  0.24942297
   0.77810091  0.27816833  0.24938113
   0.22211417  0.72218063  0.24964958
   0.00014964  0.00009163  0.00004917
   0.49986498  0.50029598  0.00008937
   0.27797545  0.22212597  0.74961542
   0.72200582  0.77809074  0.74942329
   0.77810090  0.27816837  0.74938132
   0.22211417  0.72218058  0.74964912
   0.00015039  0.00009191  0.50004915
   0.49986410  0.50029598  0.50008944
   0.09622444  0.41593441  0.97284069
   0.89746204  0.59547765  0.97077275
   0.59678904  0.10890600  0.97312011
   0.41724961  0.91016751  0.97050601
   0.09622515  0.41593401  0.47284075
   0.89746276  0.59547733  0.47077273
   0.59678850  0.10890582  0.47312003
   0.41724909  0.91016743  0.47050597
   0.00017429 -0.00007924  0.24997448
   0.49981364  0.50008865  0.24996071
   0.00017429 -0.00007924  0.74997442
   0.49981366  0.50008865  0.74996066
tetra-FASnI3                            
           1
     8.882137   -0.000039   -0.000103
    -0.000039    8.882217   -0.000387
    -0.000146   -0.000546   12.530386
   C    H    I    N    Sn
     4    20    12     8     4
Direct configuration=     3
   0.99700302  0.50715419  0.01962817
   0.50621790  0.01037707  0.01962969
   0.99700333  0.50715396  0.51962820
   0.50621771  0.01037693  0.51962968
   0.89154114  0.60090332  0.88869710
   0.10150861  0.40662780  0.89106433
   0.16339577  0.35261850  0.01797297
   0.83093400  0.66226493  0.01399026
   0.99730794  0.50956757  0.10688644
   0.41239797  0.90483704  0.88871907
   0.60667297  0.11480247  0.89104068
   0.66066281  0.17667232  0.01798356
   0.35101594  0.84421296  0.01398089
   0.50371899  0.01058686  0.10688647
   0.89154115  0.60090333  0.38869702
   0.10150862  0.40662781  0.39106441
   0.16339571  0.35261856  0.51797292
   0.83093393  0.66226501  0.51399031
   0.99730797  0.50956755  0.60688645
   0.41239796  0.90483704  0.38871912
   0.60667296  0.11480247  0.39104064
   0.66066285  0.17667237  0.51798359
   0.35101597  0.84421300  0.51398087
   0.50371896  0.01058685  0.60688647
   0.27779808  0.22222266  0.24992309
   0.72228786  0.77782167  0.24988439
   0.77782360  0.27783744  0.24987598
   0.22222020  0.72232346  0.24992983
   0.00003043  0.00001862  0.00000983
   0.49997253  0.50006019  0.00001787
   0.27779808  0.22222266  0.74992297
   0.72228786  0.77782165  0.74988445
   0.77782360  0.27783744  0.74987601
   0.22222020  0.72232345  0.74992974
   0.00003058  0.00001868  0.50000983
   0.49997235  0.50006019  0.50001788
   0.09455035  0.41805709  0.97224007
   0.89914291  0.59341183  0.97016729
   0.59511353  0.10771262  0.97229554
   0.41975993  0.91231022  0.97011454
   0.09455049  0.41805701  0.47224008
   0.89914306  0.59341176  0.47016729
   0.59511342  0.10771259  0.47229552
   0.41975983  0.91231020  0.47011453
   0.00003545 -0.00001611  0.24999489
   0.49996210  0.50001804  0.24999212
   0.00003545 -0.00001612  0.74999488
   0.49996210  0.50001805  0.74999212
tetra-FASnI3                            
           1
     8.878553   -0.000145   -0.001459
    -0.000145    8.878918   -0.003383
    -0.002058   -0.004774   12.502667
   C    H    I    N    Sn
     4    20    12     8     4
Direct configuration=     4
   0.99693955  0.50714968  0.01984553
   0.50594488  0.00997656  0.01985351
   0.99693938  0.50715001  0.51984549
   0.50594473  0.00997645  0.51985349
   0.89132655  0.60106636  0.88886285
   0.10185396  0.40641823  0.89114210
   0.16359158  0.35258103  0.01771551
   0.83097450  0.66203466  0.01376141
   0.99734013  0.50959241  0.10686557
   0.41226726  0.90463106  0.88886480
   0.60690707  0.11514832  0.89113922
   0.66059859  0.17674528  0.01773508
   0.35113661  0.84413908  0.01374941
   0.50370706  0.01059683  0.10686640
   0.89132662  0.60106633  0.38886282
   0.10185401  0.40641822  0.39114202
   0.16359179  0.35258086  0.51771558
   0.83097469  0.66203451  0.51376135
   0.99734024  0.50959235  0.60686564
   0.41226722  0.90463105  0.38886479
   0.60690703  0.11514828  0.39113909
   0.66059852  0.17674521  0.51773507
   0.35113655  0.84413903  0.51374939
   0.50370698  0.01059676  0.60686643
   0.27801361  0.22210128  0.24956943
   0.72195417  0.77814279  0.24935397
   0.77814832  0.27822462  0.24931111
   0.22208309  0.72214572  0.24960483
   0.00016404  0.00010488  0.00005114
   0.49985129  0.50032557  0.00009528
   0.27801361  0.22210127  0.74957004
   0.72195422  0.77814279  0.74935477
   0.77814829  0.27822459  0.74931207
   0.22208305  0.72214573  0.74960530
   0.00016441  0.00010480  0.50005106
   0.49985091  0.50032579  0.50009517
   0.09392870  0.41799801  0.97270806
   0.89961200  0.59349863  0.97059464
   0.59513062  0.10703513  0.97276347
   0.41961384  0.91273412  0.97054330
   0.09392888  0.41799805  0.47270791
   0.89961229  0.59349861  0.47059466
   0.59513042  0.10703496  0.47276345
   0.41961363  0.91273398  0.47054322
   0.00019575 -0.00008908  0.24997150
   0.49979089  0.50010177  0.24995550
   0.00019575 -0.00008908  0.74997182
   0.49979089  0.50010176  0.74995582
tetra-FASnI3                            
           1
     8.878995   -0.000132   -0.001292
    -0.000132    8.879325   -0.003013
    -0.001822   -0.004252   12.506085
   C    H    I    N    Sn
     4    20    12     8     4
Direct configuration=     5
   0.99694737  0.50715023  0.01981867
   0.50597856  0.01002595  0.01982586
   0.99694727  0.50715049  0.51981863
   0.50597841  0.01002584  0.51982584
   0.89135302  0.60104624  0.88884236
   0.10181135  0.40644408  0.89113249
   0.16356743  0.35258567  0.01774733
   0.83096951  0.66206308  0.01378971
   0.99733616  0.50958935  0.10686815
   0.41228338  0.90465647  0.88884680
   0.60687819  0.11510565  0.89112703
   0.66060652  0.17673629  0.01776579
   0.35112173  0.84414821  0.01377802
   0.50370853  0.01059560  0.10686888
   0.89135309  0.60104621  0.38884232
   0.10181140  0.40644407  0.39113243
   0.16356760  0.35258553  0.51774739
   0.83096967  0.66206296  0.51378966
   0.99733626  0.50958929  0.60686821
   0.41228335  0.90465645  0.38884680
   0.60687815  0.11510561  0.39112690
   0.66060646  0.17673623  0.51776578
   0.35112168  0.84414817  0.51377800
   0.50370845  0.01059554  0.60686891
   0.27798703  0.22211628  0.24961314
   0.72199535  0.77810320  0.24941952
   0.77810827  0.27817689  0.24938091
   0.22210001  0.72216767  0.24964500
   0.00014756  0.00009424  0.00004603
   0.49986625  0.50029282  0.00008571
   0.27798703  0.22211627  0.74961366
   0.72199539  0.77810320  0.74942023
   0.77810825  0.27817686  0.74938175
   0.22209998  0.72216767  0.74964540
   0.00014790  0.00009417  0.50004596
   0.49986589  0.50029302  0.50008561
   0.09400538  0.41800527  0.97265023
   0.89955412  0.59348789  0.97054182
   0.59512850  0.10711868  0.97270565
   0.41963185  0.91268180  0.97049029
   0.09400556  0.41800530  0.47265010
   0.89955439  0.59348787  0.47054183
   0.59512831  0.10711853  0.47270564
   0.41963166  0.91268167  0.47049023
   0.00017597 -0.00008007  0.24997439
   0.49981201  0.50009144  0.24996003
   0.00017597 -0.00008008  0.74997467
   0.49981202  0.50009143  0.74996030
tetra-FASnI3                            
           1
     8.879135   -0.000195   -0.001948
    -0.000195    8.879670   -0.004334
    -0.002749   -0.006116   12.493611
   C    H    I    N    Sn
     4    20    12     8     4
Direct configuration=     6
   0.99690729  0.50715283  0.02001006
   0.50600662  0.01000184  0.02001820
   0.99690730  0.50715303  0.52001004
   0.50600648  0.01000172  0.52001818
   0.89124806  0.60112201  0.88898855
   0.10198557  0.40635257  0.89127047
   0.16373302  0.35251987  0.01767882
   0.83086123  0.66205633  0.01378222
   0.99735052  0.50961211  0.10702534
   0.41222086  0.90454868  0.88897787
   0.60697804  0.11527197  0.89128196
   0.66062441  0.17684006  0.01772587
   0.35107513  0.84398162  0.01374596
   0.50368456  0.01058556  0.10702888
   0.89124817  0.60112196  0.38898856
   0.10198564  0.40635255  0.39127032
   0.16373323  0.35251970  0.51767889
   0.83086148  0.66205613  0.51378213
   0.99735065  0.50961204  0.60702540
   0.41222081  0.90454865  0.38897780
   0.60697797  0.11527190  0.39128185
   0.66062426  0.17683991  0.51772582
   0.35107501  0.84398150  0.51374596
   0.50368446  0.01058547  0.60702890
   0.27812618  0.22203785  0.24938531
   0.72177958  0.77831087  0.24907825
   0.77831665  0.27842620  0.24901906
   0.22201039  0.72205244  0.24943471
   0.00023687  0.00015071  0.00007068
   0.49978677  0.50046504  0.00013324
   0.27812618  0.22203784  0.74938617
   0.72177963  0.77831087  0.74907928
   0.77831662  0.27842617  0.74902029
   0.22201035  0.72205244  0.74943538
   0.00023728  0.00015059  0.50007056
   0.49978635  0.50046531  0.50013310
   0.09377869  0.41781509  0.97265276
   0.89979807  0.59356675  0.97053265
   0.59517850  0.10673471  0.97272947
   0.41940567  0.91277780  0.97045963
   0.09377880  0.41781522  0.47265271
   0.89979821  0.59356690  0.47053257
   0.59517835  0.10673459  0.47272941
   0.41940550  0.91277769  0.47045957
   0.00027297 -0.00012331  0.24995836
   0.49970841  0.50014340  0.24993484
   0.00027296 -0.00012332  0.74995877
   0.49970841  0.50014339  0.74993526
tetra-FASnI3                            
           1
     8.879336   -0.000286   -0.002895
    -0.000286    8.880167   -0.006238
    -0.004085   -0.008805   12.475618
   C    H    I    N    Sn
     4    20    12     8     4
Direct configuration=     7
   0.99684951  0.50715664  0.02028640
   0.50604714  0.00996711  0.02029590
   0.99684969  0.50715674  0.52028639
   0.50604700  0.00996699  0.52029589
   0.89109670  0.60123133  0.88919963
   0.10223688  0.40622063  0.89146970
   0.16397185  0.35242494  0.01757991
   0.83070506  0.66204659  0.01377139
   0.99737126  0.50964498  0.10725231
   0.41213069  0.90439325  0.88916709
   0.60712209  0.11551192  0.89150568
   0.66065021  0.17698972  0.01766826
   0.35100791  0.84374133  0.01369964
   0.50365000  0.01057112  0.10725988
   0.89109686  0.60123126  0.38919970
   0.10223697  0.40622060  0.39146940
   0.16397212  0.35242473  0.51757998
   0.83070542  0.66204628  0.51377125
   0.99737142  0.50964491  0.60725236
   0.41213062  0.90439320  0.38916694
   0.60712197  0.11551180  0.39150560
   0.66064992  0.17698942  0.51766815
   0.35100768  0.84374110  0.51369967
   0.50364986  0.01057099  0.60725991
   0.27832686  0.22192466  0.24905637
   0.72146832  0.77861029  0.24858551
   0.77861715  0.27878568  0.24849666
   0.22188108  0.72188618  0.24913106
   0.00036569  0.00023216  0.00010627
   0.49967215  0.50071344  0.00020188
   0.27832686  0.22192465  0.74905770
   0.72146837  0.77861030  0.74858701
   0.77861711  0.27878565  0.74849845
   0.22188104  0.72188618  0.74913211
   0.00036621  0.00023196  0.50010611
   0.49967164  0.50071383  0.50020169
   0.09345172  0.41754078  0.97265638
   0.90014993  0.59368048  0.97051946
   0.59525062  0.10618090  0.97276379
   0.41907942  0.91291624  0.97041535
   0.09345174  0.41754107  0.47265644
   0.90014990  0.59368088  0.47051924
   0.59525054  0.10618082  0.47276367
   0.41907929  0.91291617  0.47041530
   0.00041287 -0.00018567  0.24993521
   0.49955897  0.50021834  0.24989848
   0.00041286 -0.00018568  0.74993582
   0.49955897  0.50021833  0.74989911
tetra-FASnI3                            
           1
     8.879949   -0.000322   -0.003506
    -0.000322    8.880941   -0.007514
    -0.004945   -0.010602   12.470036
   C    H    I    N    Sn
     4    20    12     8     4
Direct configuration=     8
   0.99687429  0.50710519  0.02035790
   0.50601752  0.00989146  0.02036802
   0.99687444  0.50710534  0.52035788
   0.50601740  0.00989135  0.52036799
   0.89103060  0.60127607  0.88922213
   0.10235763  0.40615901  0.89150879
   0.16409222  0.35238473  0.01754713
   0.83061318  0.66204343  0.01379463
   0.99737842  0.50966973  0.10750242
   0.41208122  0.90430710  0.88916499
   0.60717462  0.11560839  0.89157236
   0.66062443  0.17702955  0.01765452
   0.35093859  0.84357182  0.01370625
   0.50362597  0.01055823  0.10751205
   0.89103077  0.60127600  0.38922215
   0.10235772  0.40615898  0.39150850
   0.16409246  0.35238455  0.51754717
   0.83061352  0.66204315  0.51379449
   0.99737858  0.50966966  0.60750245
   0.41208113  0.90430703  0.38916480
   0.60717448  0.11560825  0.39157228
   0.66062411  0.17702923  0.51765439
   0.35093833  0.84357157  0.51370627
   0.50362581  0.01055809  0.60751207
   0.27845261  0.22185359  0.24885158
   0.72127591  0.77879659  0.24828013
   0.77880135  0.27900712  0.24817485
   0.22179784  0.72178144  0.24894087
   0.00044607  0.00028298  0.00012569
   0.49960155  0.50086559  0.00024149
   0.27845261  0.22185358  0.74885318
   0.72127595  0.77879659  0.74828188
   0.77880132  0.27900710  0.74817695
   0.22179781  0.72178143  0.74894216
   0.00044664  0.00028274  0.50012549
   0.49960101  0.50086603  0.50024128
   0.09334191  0.41730822  0.97272073
   0.90024892  0.59384390  0.97057834
   0.59545461  0.10603407  0.97281932
   0.41887798  0.91298228  0.97048264
   0.09334200  0.41730848  0.47272076
   0.90024897  0.59384425  0.47057812
   0.59545452  0.10603396  0.47281917
   0.41887785  0.91298220  0.47048259
   0.00049384 -0.00022069  0.24992019
   0.49947280  0.50026327  0.24987470
   0.00049383 -0.00022070  0.74992092
   0.49947280  0.50026327  0.74987543
tetra-FASnI3                            
           1
     8.881786   -0.000431   -0.005338
    -0.000431    8.883263   -0.011340
    -0.007527   -0.015992   12.453291
   C    H    I    N    Sn
     4    20    12     8     4
Direct configuration=     9
   0.99694866  0.50695088  0.02057249
   0.50592872  0.00966456  0.02058444
   0.99694870  0.50695121  0.52057242
   0.50592865  0.00966450  0.52058436
   0.89083233  0.60141026  0.88928965
   0.10271986  0.40597417  0.89162611
   0.16445330  0.35226410  0.01744876
   0.83033757  0.66203395  0.01386435
   0.99739996  0.50974413  0.10825308
   0.41193281  0.90404865  0.88915863
   0.60733222  0.11589781  0.89177251
   0.66054708  0.17714903  0.01761329
   0.35073066  0.84306336  0.01372603
   0.50355395  0.01051974  0.10826891
   0.89083253  0.60141020  0.38928956
   0.10271997  0.40597416  0.39162584
   0.16445344  0.35226403  0.51744870
   0.83033783  0.66203378  0.51386424
   0.99740014  0.50974408  0.60825308
   0.41193268  0.90404855  0.38915836
   0.60733202  0.11589761  0.39177243
   0.66054668  0.17714862  0.51761312
   0.35073032  0.84306303  0.51372602
   0.50355373  0.01051954  0.60826891
   0.27882976  0.22164027  0.24823693
   0.72069861  0.77935524  0.24736358
   0.77935384  0.27967119  0.24720908
   0.22154809  0.72146714  0.24837000
   0.00068721  0.00043544  0.00018400
   0.49938978  0.50132202  0.00036043
   0.27882978  0.22164026  0.74823937
   0.72069862  0.77935525  0.74736614
   0.77935382  0.27967122  0.74721211
   0.22154807  0.72146711  0.74837199
   0.00068791  0.00043508  0.50018369
   0.49938913  0.50132262  0.50036014
   0.09301252  0.41661065  0.97291378
   0.90054589  0.59433415  0.97075513
   0.59606656  0.10559364  0.97298595
   0.41827372  0.91318043  0.97068459
   0.09301281  0.41661082  0.47291375
   0.90054619  0.59433437  0.47075490
   0.59606642  0.10559344  0.47298571
   0.41827357  0.91318031  0.47068452
   0.00073673 -0.00032574  0.24987513
   0.49921431  0.50039804  0.24980331
   0.00073672 -0.00032575  0.74987619
   0.49921431  0.50039804  0.74980438
tetra-FASnI3                            
           1
     8.885462   -0.000650   -0.009004
    -0.000650    8.887905   -0.018994
    -0.012690   -0.026772   12.419799
   C    H    I    N    Sn
     4    20    12     8     4
Direct configuration=    10
   0.99709748  0.50664263  0.02100216
   0.50575126  0.00921115  0.02101769
   0.99709731  0.50664328  0.52100202
   0.50575131  0.00921118  0.52101753
   0.89043590  0.60167867  0.88942490
   0.10344424  0.40560474  0.89186107
   0.16517524  0.35202277  0.01725178
   0.82978650  0.66201509  0.01400390
   0.99744346  0.50989382  0.10975649
   0.41163603  0.90353189  0.88914569
   0.60764748  0.11647676  0.89217359
   0.66039240  0.17738789  0.01753076
   0.35031487  0.84204672  0.01376526
   0.50341037  0.01044369  0.10978462
   0.89043618  0.60167861  0.38942458
   0.10344436  0.40560478  0.39186082
   0.16517518  0.35202292  0.51725151
   0.82978660  0.66201511  0.51400385
   0.99744369  0.50989380  0.60975641
   0.41163582  0.90353172  0.38914525
   0.60764715  0.11647644  0.39217350
   0.66039182  0.17738730  0.51753050
   0.35031436  0.84204623  0.51376521
   0.50341005  0.01044338  0.60978457
   0.27958356  0.22121299  0.24700595
   0.71954373  0.78047113  0.24552821
   0.78045804  0.28099782  0.24527552
   0.22104836  0.72083800  0.24722646
   0.00116941  0.00074035  0.00030094
   0.49896641  0.50223477  0.00059883
   0.27958360  0.22121300  0.74701007
   0.71954369  0.78047114  0.74553236
   0.78045805  0.28099794  0.74528042
   0.22104835  0.72083793  0.74722987
   0.00117039  0.00073975  0.50030041
   0.49896556  0.50223570  0.50059839
   0.09235398  0.41521611  0.97329987
   0.90113983  0.59531462  0.97110957
   0.59729031  0.10471325  0.97331957
   0.41706557  0.91357685  0.97108897
   0.09235467  0.41521607  0.47329971
   0.90114061  0.59531458  0.47110934
   0.59729005  0.10471286  0.47331915
   0.41706539  0.91357667  0.47108889
   0.00122237 -0.00053583  0.24978489
   0.49869741  0.50066740  0.24966035
   0.00122237 -0.00053584  0.74978661
   0.49869740  0.50066741  0.74966210
tetra-FASnI3                            
           1
     8.883719   -0.000546   -0.007266
    -0.000546    8.885704   -0.015364
    -0.010242   -0.021660   12.435682
   C    H    I    N    Sn
     4    20    12     8     4
Direct configuration=    11
   0.99702682  0.50678848  0.02079792
   0.50583526  0.00942581  0.02081184
   0.99702675  0.50678898  0.52079782
   0.50583526  0.00942579  0.52081172
   0.89062378  0.60155138  0.88936056
   0.10310080  0.40577969  0.89174935
   0.16483308  0.35213726  0.01734541
   0.83004768  0.66202396  0.01393763
   0.99742242  0.50982200  0.10904157
   0.41177672  0.90377683  0.88915203
   0.60749793  0.11620212  0.89198267
   0.66046574  0.17727473  0.01756995
   0.35051196  0.84252856  0.01374696
   0.50347801  0.01047886  0.10906395
   0.89062402  0.60155132  0.38936035
   0.10310092  0.40577971  0.39174909
   0.16483312  0.35213730  0.51734524
   0.83004785  0.66202389  0.51393755
   0.99742263  0.50982197  0.60904153
   0.41177655  0.90377670  0.38915167
   0.60749765  0.11620185  0.39198258
   0.66046525  0.17727422  0.51756974
   0.35051153  0.84252814  0.51374693
   0.50347774  0.01047860  0.60906392
   0.27922659  0.22141621  0.24759130
   0.72009166  0.77994331  0.24640076
   0.77993515  0.28037014  0.24619438
   0.22128557  0.72113686  0.24777046
   0.00094080  0.00059576  0.00024518
   0.49916702  0.50180202  0.00048526
   0.27922662  0.22141621  0.74759462
   0.72009164  0.77994332  0.74640415
   0.77993514  0.28037022  0.74619839
   0.22128555  0.72113681  0.74777320
   0.00094165  0.00059527  0.50024475
   0.49916626  0.50180280  0.50048489
   0.09266605  0.41587686  0.97311678
   0.90085818  0.59484969  0.97094067
   0.59671015  0.10513032  0.97316102
   0.41763814  0.91338874  0.97089674
   0.09266656  0.41587692  0.47311668
   0.90085873  0.59484978  0.47094044
   0.59670994  0.10513002  0.47316069
   0.41763798  0.91338859  0.47089667
   0.00099219 -0.00043620  0.24982779
   0.49894247  0.50053982  0.24972832
   0.00099219 -0.00043621  0.74982920
   0.49894246  0.50053982  0.74972975
tetra-FASnI3                            
           1
     8.882875   -0.000605   -0.007468
    -0.000605    8.885167   -0.016440
    -0.010527   -0.023172   12.431235
   C    H    I    N    Sn
     4    20    12     8     4
Direct configuration=    12
   0.99697691  0.50680381  0.02107698
   0.50598370  0.00954498  0.02109490
   0.99697729  0.50680391  0.52107684
   0.50598355  0.00954479  0.52109475
   0.89057816  0.60157687  0.88922401
   0.10323177  0.40570365  0.89162694
   0.16508399  0.35200965  0.01747001
   0.82986826  0.66205517  0.01413464
   0.99743481  0.50984268  0.10934511
   0.41169237  0.90364295  0.88903979
   0.60751491  0.11624111  0.89184124
   0.66051034  0.17741449  0.01779657
   0.35038686  0.84224315  0.01384096
   0.50344960  0.01044337  0.10936727
   0.89057843  0.60157681  0.38922372
   0.10323190  0.40570368  0.39162675
   0.16508407  0.35200967  0.51746985
   0.82986845  0.66205509  0.51413450
   0.99743499  0.50984269  0.60934504
   0.41169219  0.90364281  0.38903950
   0.60751461  0.11624081  0.39184102
   0.66050986  0.17741401  0.51779634
   0.35038650  0.84224280  0.51384085
   0.50344933  0.01044311  0.60936720
   0.27948716  0.22126801  0.24717067
   0.71970452  0.78032389  0.24578133
   0.78030124  0.28081521  0.24554901
   0.22110475  0.72092009  0.24737551
   0.00111513  0.00070090  0.00026852
   0.49901915  0.50210969  0.00054780
   0.27948720  0.22126801  0.74717457
   0.71970447  0.78032391  0.74578525
   0.78030127  0.28081534  0.74555362
   0.22110473  0.72092002  0.74737876
   0.00111603  0.00070035  0.50026803
   0.49901838  0.50211055  0.50054740
   0.09247245  0.41549525  0.97327723
   0.90113835  0.59501808  0.97117036
   0.59686077  0.10467780  0.97342232
   0.41722948  0.91341641  0.97103007
   0.09247268  0.41549558  0.47327703
   0.90113869  0.59501839  0.47117011
   0.59686059  0.10467749  0.47342202
   0.41722925  0.91341618  0.47102991
   0.00111728 -0.00048163  0.24979294
   0.49881224  0.50061764  0.24967334
   0.00111728 -0.00048164  0.74979455
   0.49881224  0.50061765  0.74967497
tetra-FASnI3                            
           1
     8.882405   -0.000637   -0.007580
    -0.000638    8.884867   -0.017039
    -0.010686   -0.024014   12.428758
   C    H    I    N    Sn
     4    20    12     8     4
Direct configuration=    13
   0.99694911  0.50681237  0.02123246
   0.50606639  0.00961139  0.02125261
   0.99694974  0.50681225  0.52123230
   0.50606615  0.00961110  0.52125245
   0.89055275  0.60159105  0.88914792
   0.10330472  0.40566128  0.89155873
   0.16522374  0.35193859  0.01753943
   0.82976832  0.66207258  0.01424440
   0.99744171  0.50985422  0.10951423
   0.41164539  0.90356836  0.88897724
   0.60752437  0.11626281  0.89176245
   0.66053518  0.17749235  0.01792284
   0.35031718  0.84208419  0.01389332
   0.50343378  0.01042363  0.10953626
   0.89055304  0.60159099  0.38914759
   0.10330486  0.40566132  0.39155858
   0.16522386  0.35193859  0.51753927
   0.82976853  0.66207249  0.51424423
   0.99744189  0.50985426  0.60951414
   0.41164519  0.90356822  0.38897700
   0.60752405  0.11626250  0.39176215
   0.66053472  0.17749189  0.51792260
   0.35031685  0.84208387  0.51389317
   0.50343351  0.01042337  0.60953617
   0.27963229  0.22118543  0.24693631
   0.71948887  0.78053581  0.24543622
   0.78050515  0.28106305  0.24518946
   0.22100402  0.72079932  0.24715544
   0.00121224  0.00075946  0.00028152
   0.49893678  0.50228106  0.00058265
   0.27963234  0.22118543  0.74694054
   0.71948880  0.78053584  0.74544045
   0.78050519  0.28106320  0.74519441
   0.22100399  0.72079922  0.74715899
   0.00121316  0.00075888  0.50028101
   0.49893600  0.50228197  0.50058223
   0.09236461  0.41528271  0.97336660
   0.90129441  0.59511190  0.97129834
   0.59694468  0.10442578  0.97356789
   0.41700185  0.91343183  0.97110435
   0.09236469  0.41528319  0.47336635
   0.90129463  0.59511233  0.47129808
   0.59694451  0.10442546  0.47356760
   0.41700159  0.91343155  0.47110415
   0.00118695 -0.00050693  0.24977352
   0.49873971  0.50066098  0.24964272
   0.00118695 -0.00050694  0.74977524
   0.49873970  0.50066100  0.74964445
tetra-FASnI3                            
           1
     8.878579   -0.000632   -0.007426
    -0.000634    8.881240   -0.018165
    -0.010471   -0.025591   12.422790
   C    H    I    N    Sn
     4    20    12     8     4
Direct configuration=    14
   0.99701443  0.50674358  0.02156385
   0.50586232  0.00939711  0.02158536
   0.99701481  0.50674370  0.52156364
   0.50586196  0.00939669  0.52158515
   0.89064613  0.60152240  0.88914038
   0.10328623  0.40565786  0.89147279
   0.16541385  0.35181557  0.01781878
   0.82968569  0.66206523  0.01454492
   0.99745022  0.50984508  0.10963452
   0.41158336  0.90349700  0.88896015
   0.60740144  0.11607919  0.89169417
   0.66055727  0.17754255  0.01831704
   0.35020722  0.84186527  0.01407389
   0.50343848  0.01039275  0.10965386
   0.89064643  0.60152237  0.38914002
   0.10328637  0.40565794  0.39147264
   0.16541389  0.35181566  0.51781854
   0.82968585  0.66206520  0.51454473
   0.99745041  0.50984513  0.60963437
   0.41158314  0.90349684  0.38895998
   0.60740111  0.11607886  0.39169376
   0.66055690  0.17754220  0.51831680
   0.35020698  0.84186504  0.51407363
   0.50343822  0.01039250  0.60965371
   0.27989980  0.22103404  0.24651120
   0.71911105  0.78091804  0.24482150
   0.78085699  0.28149892  0.24455765
   0.22080664  0.72057764  0.24675141
   0.00139389  0.00086683  0.00028398
   0.49878767  0.50258263  0.00062146
   0.27989987  0.22103402  0.74651592
   0.71911094  0.78091810  0.74482618
   0.78085709  0.28149915  0.74456309
   0.22080659  0.72057751  0.74675541
   0.00139483  0.00086621  0.50028346
   0.49878689  0.50258359  0.50062104
   0.09217889  0.41503952  0.97343839
   0.90141907  0.59530490  0.97135171
   0.59726664  0.10431989  0.97361431
   0.41687845  0.91363578  0.97119096
   0.09217920  0.41503979  0.47343809
   0.90141945  0.59530518  0.47135149
   0.59726642  0.10431950  0.47361403
   0.41687813  0.91363543  0.47119070
   0.00127120 -0.00052502  0.24973360
   0.49865728  0.50072643  0.24958027
   0.00127120 -0.00052503  0.74973544
   0.49865726  0.50072645  0.74958212
tetra-FASnI3                            
           1
     8.876028   -0.000629   -0.007323
    -0.000631    8.878821   -0.018916
    -0.010327   -0.026642   12.418811
   C    H    I    N    Sn
     4    20    12     8     4
Direct configuration=    15
   0.99705798  0.50669774  0.02178488
   0.50572622  0.00925425  0.02180729
   0.99705819  0.50669802  0.52178463
   0.50572577  0.00925373  0.52180704
   0.89070841  0.60147662  0.88913535
   0.10327390  0.40565558  0.89141546
   0.16554064  0.35173356  0.01800510
   0.82963057  0.66206036  0.01474537
   0.99745589  0.50983899  0.10971475
   0.41154199  0.90344940  0.88894875
   0.60731946  0.11595673  0.89164861
   0.66057199  0.17757608  0.01857996
   0.35013389  0.84171928  0.01419431
   0.50344162  0.01037217  0.10973229
   0.89070872  0.60147660  0.38913496
   0.10327404  0.40565567  0.39141531
   0.16554064  0.35173370  0.51800481