  48  48   0   0
  0.2220505E+02  0.1463700E-08  0.8786000E-09  0.8288000E-09  0.5000000E-15
   1.0000000000000000E-004
  CAR 
 hexagonal-FASnI3                        
      8.99456750    -22.46460226  301      1.14288305      1.00000000
    -22.465  0.0000E+00  0.0000E+00
    -22.360  0.0000E+00  0.0000E+00
    -22.255  0.0000E+00  0.0000E+00
    -22.150  0.0000E+00  0.0000E+00
    -22.045  0.0000E+00  0.0000E+00
    -21.940  0.0000E+00  0.0000E+00
    -21.835  0.0000E+00  0.0000E+00
    -21.731  0.0000E+00  0.0000E+00
    -21.626  0.0000E+00  0.0000E+00
    -21.521  0.0000E+00  0.0000E+00
    -21.416  0.0000E+00  0.0000E+00
    -21.311  0.5011E-16  0.5255E-17
    -21.206  0.1149E-07  0.1205E-08
    -21.101  0.5884E-03  0.6171E-04
    -20.997  0.2647E-01  0.2837E-02
    -20.892  0.3654E-01  0.6668E-02
    -20.787  0.1264E-01  0.7994E-02
    -20.682  0.5981E-04  0.8000E-02
    -20.577  0.1144E-09  0.8000E-02
    -20.472  0.0000E+00  0.8000E-02
    -20.367  0.0000E+00  0.8000E-02
    -20.262  0.0000E+00  0.8000E-02
    -20.158  0.0000E+00  0.8000E-02
    -20.053  0.0000E+00  0.8000E-02
    -19.948  0.0000E+00  0.8000E-02
    -19.843  0.0000E+00  0.8000E-02
    -19.738  0.0000E+00  0.8000E-02
    -19.633  0.0000E+00  0.8000E-02
    -19.528  0.0000E+00  0.8000E-02
    -19.424  0.0000E+00  0.8000E-02
    -19.319  0.0000E+00  0.8000E-02
    -19.214  0.0000E+00  0.8000E-02
    -19.109  0.0000E+00  0.8000E-02
    -19.004  0.1059E-17  0.8000E-02
    -18.899  0.1080E-08  0.8000E-02
    -18.794  0.1921E-03  0.8020E-02
    -18.690  0.2087E-01  0.1021E-01
    -18.585  0.3457E-01  0.1383E-01
    -18.480  0.1966E-01  0.1590E-01
    -18.375  0.9977E-03  0.1600E-01
    -18.270  0.4243E-07  0.1600E-01
    -18.165  0.3995E-15  0.1600E-01
    -18.060  0.0000E+00  0.1600E-01
    -17.955  0.0000E+00  0.1600E-01
    -17.851  0.0000E+00  0.1600E-01
    -17.746  0.0000E+00  0.1600E-01
    -17.641  0.0000E+00  0.1600E-01
    -17.536  0.0000E+00  0.1600E-01
    -17.431  0.0000E+00  0.1600E-01
    -17.326  0.0000E+00  0.1600E-01
    -17.221  0.0000E+00  0.1600E-01
    -17.117  0.0000E+00  0.1600E-01
    -17.012  0.0000E+00  0.1600E-01
    -16.907  0.0000E+00  0.1600E-01
    -16.802  0.0000E+00  0.1600E-01
    -16.697  0.0000E+00  0.1600E-01
    -16.592  0.0000E+00  0.1600E-01
    -16.487  0.0000E+00  0.1600E-01
    -16.382  0.0000E+00  0.1600E-01
    -16.278  0.0000E+00  0.1600E-01
    -16.173  0.0000E+00  0.1600E-01
    -16.068  0.0000E+00  0.1600E-01
    -15.963  0.0000E+00  0.1600E-01
    -15.858  0.0000E+00  0.1600E-01
    -15.753  0.0000E+00  0.1600E-01
    -15.648  0.0000E+00  0.1600E-01
    -15.544  0.0000E+00  0.1600E-01
    -15.439  0.0000E+00  0.1600E-01
    -15.334  0.0000E+00  0.1600E-01
    -15.229  0.0000E+00  0.1600E-01
    -15.124  0.0000E+00  0.1600E-01
    -15.019  0.0000E+00  0.1600E-01
    -14.914  0.0000E+00  0.1600E-01
    -14.810  0.0000E+00  0.1600E-01
    -14.705  0.0000E+00  0.1600E-01
    -14.600  0.0000E+00  0.1600E-01
    -14.495  0.0000E+00  0.1600E-01
    -14.390  0.0000E+00  0.1600E-01
    -14.285  0.0000E+00  0.1600E-01
    -14.180  0.0000E+00  0.1600E-01
    -14.075  0.0000E+00  0.1600E-01
    -13.971  0.0000E+00  0.1600E-01
    -13.866  0.0000E+00  0.1600E-01
    -13.761  0.0000E+00  0.1600E-01
    -13.656  0.0000E+00  0.1600E-01
    -13.551  0.0000E+00  0.1600E-01
    -13.446  0.0000E+00  0.1600E-01
    -13.341  0.0000E+00  0.1600E-01
    -13.237  0.0000E+00  0.1600E-01
    -13.132  0.0000E+00  0.1600E-01
    -13.027  0.0000E+00  0.1600E-01
    -12.922  0.0000E+00  0.1600E-01
    -12.817  0.0000E+00  0.1600E-01
    -12.712  0.0000E+00  0.1600E-01
    -12.607  0.0000E+00  0.1600E-01
    -12.503  0.2079E-15  0.1600E-01
    -12.398  0.2537E-07  0.1600E-01
    -12.293  0.8166E-03  0.1609E-01
    -12.188  0.2930E-01  0.1916E-01
    -12.083  0.3222E-01  0.2254E-01
    -11.978  0.1382E-01  0.2399E-01
    -11.873  0.1308E-03  0.2400E-01
    -11.768  0.3609E-06  0.2400E-01
    -11.664  0.8987E-03  0.2409E-01
    -11.559  0.1485E-01  0.2565E-01
    -11.454  0.2192E-01  0.2795E-01
    -11.349  0.1868E-01  0.2991E-01
    -11.244  0.2108E-01  0.3212E-01
    -11.139  0.4280E-01  0.3661E-01
    -11.034  0.5854E-01  0.4275E-01
    -10.930  0.3925E-01  0.4686E-01
    -10.825  0.1082E-01  0.4800E-01
    -10.720  0.4746E-04  0.4800E-01
    -10.615  0.1246E-09  0.4800E-01
    -10.510  0.0000E+00  0.4800E-01
    -10.405  0.3623E-16  0.4800E-01
    -10.300  0.7859E-08  0.4800E-01
    -10.196  0.4462E-03  0.4805E-01
    -10.091  0.2393E-01  0.5056E-01
     -9.986  0.3357E-01  0.5408E-01
     -9.881  0.1786E-01  0.5595E-01
     -9.776  0.4837E-03  0.5600E-01
     -9.671  0.8434E-08  0.5600E-01
     -9.566  0.4109E-09  0.5600E-01
     -9.461  0.1166E-03  0.5601E-01
     -9.357  0.1939E-01  0.5805E-01
     -9.252  0.3613E-01  0.6183E-01
     -9.147  0.1958E-01  0.6389E-01
     -9.042  0.1080E-02  0.6400E-01
     -8.937  0.5324E-07  0.6400E-01
     -8.832  0.6061E-15  0.6400E-01
     -8.727  0.0000E+00  0.6400E-01
     -8.623  0.0000E+00  0.6400E-01
     -8.518  0.0000E+00  0.6400E-01
     -8.413  0.0000E+00  0.6400E-01
     -8.308  0.0000E+00  0.6400E-01
     -8.203  0.0000E+00  0.6400E-01
     -8.098  0.0000E+00  0.6400E-01
     -7.993  0.0000E+00  0.6400E-01
     -7.889  0.1567E-14  0.6400E-01
     -7.784  0.9807E-07  0.6400E-01
     -7.679  0.1496E-02  0.6416E-01
     -7.574  0.3037E-01  0.6734E-01
     -7.469  0.2946E-01  0.7043E-01
     -7.364  0.1478E-01  0.7198E-01
     -7.259  0.1836E-03  0.7200E-01
     -7.154  0.1070E-08  0.7200E-01
     -7.050  0.0000E+00  0.7200E-01
     -6.945  0.0000E+00  0.7200E-01
     -6.840  0.0000E+00  0.7200E-01
     -6.735  0.0000E+00  0.7200E-01
     -6.630  0.0000E+00  0.7200E-01
     -6.525  0.0000E+00  0.7200E-01
     -6.420  0.0000E+00  0.7200E-01
     -6.316  0.9411E-18  0.7200E-01
     -6.211  0.6680E-09  0.7200E-01
     -6.106  0.1279E-03  0.7201E-01
     -6.001  0.1786E-01  0.7389E-01
     -5.896  0.4056E-01  0.7814E-01
     -5.791  0.1750E-01  0.7997E-01
     -5.686  0.4164E-03  0.8002E-01
     -5.582  0.1343E-01  0.8143E-01
     -5.477  0.4923E-01  0.8659E-01
     -5.372  0.5717E-01  0.9258E-01
     -5.267  0.3026E-01  0.9576E-01
     -5.162  0.2321E-02  0.9600E-01
     -5.057  0.3292E-06  0.9600E-01
     -4.952  0.1182E-13  0.9600E-01
     -4.847  0.0000E+00  0.9600E-01
     -4.743  0.0000E+00  0.9600E-01
     -4.638  0.0000E+00  0.9600E-01
     -4.533  0.0000E+00  0.9600E-01
     -4.428  0.0000E+00  0.9600E-01
     -4.323  0.0000E+00  0.9600E-01
     -4.218  0.0000E+00  0.9600E-01
     -4.113  0.0000E+00  0.9600E-01
     -4.009  0.0000E+00  0.9600E-01
     -3.904  0.0000E+00  0.9600E-01
     -3.799  0.0000E+00  0.9600E-01
     -3.694  0.0000E+00  0.9600E-01
     -3.589  0.0000E+00  0.9600E-01
     -3.484  0.0000E+00  0.9600E-01
     -3.379  0.0000E+00  0.9600E-01
     -3.275  0.0000E+00  0.9600E-01
     -3.170  0.0000E+00  0.9600E-01
     -3.065  0.1765E-18  0.9600E-01
     -2.960  0.1105E-09  0.9600E-01
     -2.855  0.1380E-04  0.9600E-01
     -2.750  0.8038E-03  0.9609E-01
     -2.645  0.1397E-02  0.9623E-01
     -2.540  0.4712E-02  0.9673E-01
     -2.436  0.7634E-02  0.9753E-01
     -2.331  0.1311E-01  0.9890E-01
     -2.226  0.1626E-01  0.1006E+00
     -2.121  0.3369E-01  0.1041E+00
     -2.016  0.3695E-01  0.1080E+00
     -1.911  0.3352E-01  0.1115E+00
     -1.806  0.3628E-01  0.1153E+00
     -1.702  0.3333E-01  0.1188E+00
     -1.597  0.2799E-01  0.1218E+00
     -1.492  0.1934E-01  0.1238E+00
     -1.387  0.1703E-01  0.1256E+00
     -1.282  0.1539E-01  0.1272E+00
     -1.177  0.6605E-02  0.1279E+00
     -1.072  0.1242E-01  0.1292E+00
     -0.968  0.3227E-01  0.1326E+00
     -0.863  0.2941E-01  0.1357E+00
     -0.758  0.2552E-01  0.1383E+00
     -0.653  0.3824E-01  0.1423E+00
     -0.548  0.4970E-01  0.1476E+00
     -0.443  0.4302E-01  0.1521E+00
     -0.338  0.3853E-01  0.1561E+00
     -0.233  0.4161E-01  0.1605E+00
     -0.129  0.3610E-01  0.1643E+00
     -0.024  0.2042E-01  0.1664E+00
      0.081  0.1386E-01  0.1678E+00
      0.186  0.6837E-02  0.1686E+00
      0.291  0.1260E-01  0.1699E+00
      0.396  0.1186E-01  0.1711E+00
      0.501  0.1044E-01  0.1722E+00
      0.605  0.1160E-01  0.1734E+00
      0.710  0.9201E-02  0.1744E+00
      0.815  0.1125E-01  0.1756E+00
      0.920  0.3774E-02  0.1760E+00
      1.025  0.1842E-03  0.1760E+00
      1.130  0.1784E-07  0.1760E+00
      1.235  0.5392E-15  0.1760E+00
      1.340  0.0000E+00  0.1760E+00
      1.444  0.0000E+00  0.1760E+00
      1.549  0.0000E+00  0.1760E+00
      1.654  0.0000E+00  0.1760E+00
      1.759  0.0000E+00  0.1760E+00
      1.864  0.0000E+00  0.1760E+00
      1.969  0.0000E+00  0.1760E+00
      2.074  0.0000E+00  0.1760E+00
      2.178  0.0000E+00  0.1760E+00
      2.283  0.0000E+00  0.1760E+00
      2.388  0.0000E+00  0.1760E+00
      2.493  0.0000E+00  0.1760E+00
      2.598  0.0000E+00  0.1760E+00
      2.703  0.0000E+00  0.1760E+00
      2.808  0.0000E+00  0.1760E+00
      2.912  0.0000E+00  0.1760E+00
      3.017  0.0000E+00  0.1760E+00
      3.122  0.0000E+00  0.1760E+00
      3.227  0.0000E+00  0.1760E+00
      3.332  0.0000E+00  0.1760E+00
      3.437  0.0000E+00  0.1760E+00
      3.542  0.4588E-17  0.1760E+00
      3.647  0.1555E-08  0.1760E+00
      3.751  0.1342E-03  0.1760E+00
      3.856  0.1289E-01  0.1774E+00
      3.961  0.3925E-01  0.1815E+00
      4.066  0.4234E-01  0.1859E+00
      4.171  0.3793E-01  0.1899E+00
      4.276  0.3344E-01  0.1934E+00
      4.381  0.4072E-01  0.1977E+00
      4.485  0.3883E-01  0.2017E+00
      4.590  0.2425E-01  0.2043E+00
      4.695  0.1758E-01  0.2061E+00
      4.800  0.1083E-01  0.2073E+00
      4.905  0.6138E-02  0.2079E+00
      5.010  0.8288E-03  0.2080E+00
      5.115  0.2313E-05  0.2080E+00
      5.219  0.2519E-03  0.2080E+00
      5.324  0.7947E-03  0.2081E+00
      5.429  0.2091E-03  0.2081E+00
      5.534  0.2793E-02  0.2084E+00
      5.639  0.2929E-02  0.2087E+00
      5.744  0.4923E-02  0.2092E+00
      5.849  0.9425E-02  0.2102E+00
      5.954  0.6210E-02  0.2109E+00
      6.058  0.8569E-02  0.2118E+00
      6.163  0.9739E-02  0.2128E+00
      6.268  0.1187E-01  0.2141E+00
      6.373  0.8907E-02  0.2150E+00
      6.478  0.1509E-01  0.2166E+00
      6.583  0.1912E-01  0.2186E+00
      6.688  0.1488E-01  0.2201E+00
      6.792  0.2313E-01  0.2226E+00
      6.897  0.2605E-01  0.2253E+00
      7.002  0.2615E-01  0.2280E+00
      7.107  0.2707E-01  0.2309E+00
      7.212  0.2210E-01  0.2332E+00
      7.317  0.2537E-01  0.2359E+00
      7.422  0.2016E-01  0.2380E+00
      7.526  0.1561E-01  0.2396E+00
      7.631  0.3728E-02  0.2400E+00
      7.736  0.6393E-04  0.2400E+00
      7.841  0.1286E-08  0.2400E+00
      7.946  0.5647E-17  0.2400E+00
      8.051  0.0000E+00  0.2400E+00
      8.156  0.0000E+00  0.2400E+00
      8.261  0.0000E+00  0.2400E+00
      8.365  0.0000E+00  0.2400E+00
      8.470  0.0000E+00  0.2400E+00
      8.575  0.0000E+00  0.2400E+00
      8.680  0.0000E+00  0.2400E+00
      8.785  0.0000E+00  0.2400E+00
      8.890  0.0000E+00  0.2400E+00
      8.995  0.0000E+00  0.2400E+00
