       N       E                     dE             d eps       ncg     rms          ort
DAV:   1     0.833177506922E+03    0.83318E+03   -0.89315E+04  1200   0.161E+03
DAV:   2    -0.463846594868E+03   -0.12970E+04   -0.12413E+04  1200   0.253E+02
DAV:   3    -0.638817409873E+03   -0.17497E+03   -0.17359E+03  1200   0.104E+02
DAV:   4    -0.644005870467E+03   -0.51885E+01   -0.51577E+01  1200   0.202E+01
DAV:   5    -0.644164662719E+03   -0.15879E+00   -0.15870E+00  1200   0.328E+00
SDA:   6    -0.581151242628E+03    0.63013E+02   -0.15870E+00  1200   0.634E+02 0.000E+00
CGA:   7    -0.591670919108E+03   -0.10520E+02   -0.10490E+02  1200   0.466E+01 0.871E-02
CGA:   8    -0.593042439934E+03   -0.13715E+01   -0.13678E+01  1200   0.146E+01 0.237E-01
CGA:   9    -0.593477104461E+03   -0.43466E+00   -0.43464E+00  1200   0.425E+00 0.115E-02
CGA:  10    -0.593605986520E+03   -0.12888E+00   -0.12890E+00  1200   0.118E+00-0.241E-03
CGA:  11    -0.593647337380E+03   -0.41351E-01   -0.41369E-01  1200   0.352E-01-0.169E-03
CGA:  12    -0.593658644317E+03   -0.11307E-01   -0.11304E-01  1200   0.785E-02 0.436E-04
CGA:  13    -0.593661437689E+03   -0.27934E-02   -0.27992E-02  1200   0.196E-02-0.427E-04
CGA:  14    -0.593662141722E+03   -0.70403E-03   -0.70415E-03  1200   0.421E-03-0.687E-06
CGA:  15    -0.593662296489E+03   -0.15477E-03   -0.15243E-03  1200   0.890E-04 0.187E-04
CGA:  16    -0.593662335098E+03   -0.38609E-04   -0.38055E-04  1200   0.225E-04 0.334E-05
CGA:  17    -0.593662345578E+03   -0.10479E-04   -0.10828E-04  1200   0.637E-05-0.165E-05
CGA:  18    -0.593662347879E+03   -0.23018E-05   -0.22281E-05  1200   0.151E-05 0.644E-06
   1 F= -.59366235E+03 E0= -.59366235E+03  d E =-.593662E+03
       N       E                     dE             d eps       ncg     rms          ort
SDA:   1    -0.593617798339E+03    0.44547E-01    0.00000E+00  1200   0.925E-01 0.000E+00
CGA:   2    -0.593649810720E+03   -0.32012E-01   -0.32012E-01  1200   0.331E-01-0.852E-06
CGA:   3    -0.593657876127E+03   -0.80654E-02   -0.80656E-02  1200   0.480E-02 0.933E-05
CGA:   4    -0.593659102750E+03   -0.12266E-02   -0.12266E-02  1200   0.853E-03-0.270E-06
CGA:   5    -0.593659340635E+03   -0.23788E-03   -0.23787E-03  1200   0.187E-03 0.223E-05
CGA:   6    -0.593659399453E+03   -0.58818E-04   -0.58790E-04  1200   0.498E-04 0.663E-06
CGA:   7    -0.593659418031E+03   -0.18578E-04   -0.18577E-04  1200   0.164E-04 0.163E-07
CGA:   8    -0.593659424275E+03   -0.62441E-05   -0.62325E-05  1200   0.465E-05 0.110E-06
CGA:   9    -0.593659425983E+03   -0.17072E-05   -0.17046E-05  1200   0.105E-05 0.329E-07
   2 F= -.59365943E+03 E0= -.59365943E+03  d E =0.292190E-02
       N       E                     dE             d eps       ncg     rms          ort
SDA:   1    -0.593640057483E+03    0.19367E-01    0.00000E+00  1200   0.505E-01 0.000E+00
CGA:   2    -0.593657508458E+03   -0.17451E-01   -0.17451E-01  1200   0.181E-01-0.621E-05
CGA:   3    -0.593661926085E+03   -0.44176E-02   -0.44173E-02  1200   0.263E-02-0.592E-05
CGA:   4    -0.593662596736E+03   -0.67065E-03   -0.67065E-03  1200   0.465E-03-0.928E-08
CGA:   5    -0.593662727379E+03   -0.13064E-03   -0.13063E-03  1200   0.102E-03-0.145E-05
CGA:   6    -0.593662759433E+03   -0.32054E-04   -0.32057E-04  1200   0.271E-04-0.156E-06
CGA:   7    -0.593662769428E+03   -0.99953E-05   -0.99833E-05  1200   0.876E-05 0.157E-06
CGA:   8    -0.593662772808E+03   -0.33804E-05   -0.33808E-05  1200   0.253E-05-0.727E-09
   3 F= -.59366277E+03 E0= -.59366277E+03  d E =-.424929E-03
       N       E                     dE             d eps       ncg     rms          ort
SDA:   1    -0.593652918843E+03    0.98506E-02    0.00000E+00  1200   0.232E-01 0.000E+00
CGA:   2    -0.593661166730E+03   -0.82479E-02   -0.82478E-02  1200   0.821E-02 0.996E-06
CGA:   3    -0.593663101553E+03   -0.19348E-02   -0.19350E-02  1200   0.114E-02 0.388E-05
CGA:   4    -0.593663391924E+03   -0.29037E-03   -0.29038E-03  1200   0.215E-03 0.103E-06
CGA:   5    -0.593663449783E+03   -0.57859E-04   -0.57891E-04  1200   0.447E-04 0.108E-05
CGA:   6    -0.593663464038E+03   -0.14255E-04   -0.14249E-04  1200   0.123E-04 0.341E-06
CGA:   7    -0.593663468593E+03   -0.45553E-05   -0.45591E-05  1200   0.402E-05-0.579E-07
CGA:   8    -0.593663470091E+03   -0.14978E-05   -0.14934E-05  1200   0.112E-05 0.581E-07
   4 F= -.59366347E+03 E0= -.59366347E+03  d E =-.697283E-03
       N       E                     dE             d eps       ncg     rms          ort
SDA:   1    -0.593663414876E+03    0.53718E-04    0.00000E+00  1200   0.132E-03 0.000E+00
CGA:   2    -0.593663461933E+03   -0.47057E-04   -0.47063E-04  1200   0.475E-04-0.117E-06
CGA:   3    -0.593663473136E+03   -0.11203E-04   -0.11179E-04  1200   0.693E-05-0.306E-06
CGA:   4    -0.593663474827E+03   -0.16911E-05   -0.16912E-05  1200   0.134E-05-0.349E-09
CGA:   5    -0.593663475211E+03   -0.38342E-06   -0.38195E-06  1200   0.281E-06-0.803E-07
CGA:   6    -0.593663475297E+03   -0.85956E-07   -0.86893E-07  1200   0.792E-07-0.252E-07
CGA:   7    -0.593663475319E+03   -0.22435E-07   -0.22595E-07  1200   0.179E-07 0.512E-08
CGA:   8    -0.593663475326E+03   -0.71577E-08   -0.70034E-08  1200   0.529E-08 0.593E-09
   5 F= -.59366348E+03 E0= -.59366348E+03  d E =-.702518E-03
       N       E                     dE             d eps       ncg     rms          ort
SDA:   1    -0.593658698789E+03    0.47765E-02    0.00000E+00  1200   0.116E-01 0.000E+00
CGA:   2    -0.593662845190E+03   -0.41464E-02   -0.41464E-02  1200   0.381E-02-0.331E-05
CGA:   3    -0.593663794106E+03   -0.94892E-03   -0.94907E-03  1200   0.569E-03 0.156E-05
CGA:   4    -0.593663937909E+03   -0.14380E-03   -0.14383E-03  1200   0.116E-03 0.240E-06
CGA:   5    -0.593663971242E+03   -0.33333E-04   -0.33333E-04  1200   0.265E-04 0.340E-08
CGA:   6    -0.593663980440E+03   -0.91974E-05   -0.92004E-05  1200   0.877E-05-0.134E-06
CGA:   7    -0.593663983586E+03   -0.31466E-05   -0.31445E-05  1200   0.280E-05 0.523E-07
CGA:   8    -0.593663984597E+03   -0.10108E-05   -0.10090E-05  1200   0.695E-06 0.551E-07
   6 F= -.59366398E+03 E0= -.59366398E+03  d E =-.509271E-03
       N       E                     dE             d eps       ncg     rms          ort
SDA:   1    -0.593662693870E+03    0.12897E-02    0.00000E+00  1200   0.298E-02 0.000E+00
CGA:   2    -0.593663757648E+03   -0.10638E-02   -0.10638E-02  1200   0.978E-03-0.184E-05
CGA:   3    -0.593664001315E+03   -0.24367E-03   -0.24373E-03  1200   0.145E-03 0.776E-06
CGA:   4    -0.593664038226E+03   -0.36911E-04   -0.36921E-04  1200   0.293E-04 0.131E-06
CGA:   5    -0.593664046724E+03   -0.84979E-05   -0.84975E-05  1200   0.686E-05-0.828E-09
CGA:   6    -0.593664049128E+03   -0.24041E-05   -0.24065E-05  1200   0.231E-05-0.727E-07
CGA:   7    -0.593664049946E+03   -0.81765E-06   -0.81679E-06  1200   0.730E-06 0.262E-07
CGA:   8    -0.593664050206E+03   -0.26078E-06   -0.25986E-06  1200   0.178E-06 0.279E-07
   7 F= -.59366405E+03 E0= -.59366405E+03  d E =-.574880E-03
       N       E                     dE             d eps       ncg     rms          ort
SDA:   1    -0.593658140905E+03    0.59090E-02    0.00000E+00  1200   0.152E-01 0.000E+00
CGA:   2    -0.593663078226E+03   -0.49373E-02   -0.49373E-02  1200   0.455E-02-0.131E-05
CGA:   3    -0.593664284722E+03   -0.12065E-02   -0.12065E-02  1200   0.745E-03-0.431E-06
CGA:   4    -0.593664472745E+03   -0.18802E-03   -0.18805E-03  1200   0.152E-03 0.300E-06
CGA:   5    -0.593664514787E+03   -0.42042E-04   -0.42032E-04  1200   0.334E-04-0.258E-06
CGA:   6    -0.593664525975E+03   -0.11187E-04   -0.11190E-04  1200   0.105E-04-0.129E-06
CGA:   7    -0.593664529724E+03   -0.37493E-05   -0.37486E-05  1200   0.334E-05 0.496E-08
CGA:   8    -0.593664530930E+03   -0.12064E-05   -0.12063E-05  1200   0.827E-06 0.151E-07
   8 F= -.59366453E+03 E0= -.59366453E+03  d E =-.480724E-03
       N       E                     dE             d eps       ncg     rms          ort
SDA:   1    -0.593661601976E+03    0.29277E-02    0.00000E+00  1200   0.721E-02 0.000E+00
CGA:   2    -0.593663939407E+03   -0.23374E-02   -0.23374E-02  1200   0.215E-02-0.735E-06
CGA:   3    -0.593664510667E+03   -0.57126E-03   -0.57125E-03  1200   0.352E-03-0.306E-06
CGA:   4    -0.593664599586E+03   -0.88918E-04   -0.88933E-04  1200   0.711E-04 0.212E-06
CGA:   5    -0.593664619375E+03   -0.19789E-04   -0.19782E-04  1200   0.158E-04-0.177E-06
CGA:   6    -0.593664624682E+03   -0.53076E-05   -0.53098E-05  1200   0.500E-05-0.921E-07
CGA:   7    -0.593664626461E+03   -0.17784E-05   -0.17778E-05  1200   0.159E-05 0.389E-08
CGA:   8    -0.593664627034E+03   -0.57308E-06   -0.57236E-06  1200   0.392E-06 0.114E-07
   9 F= -.59366463E+03 E0= -.59366463E+03  d E =-.576827E-03
       N       E                     dE             d eps       ncg     rms          ort
SDA:   1    -0.593662931488E+03    0.16950E-02    0.00000E+00  1200   0.502E-02 0.000E+00
CGA:   2    -0.593664586650E+03   -0.16552E-02   -0.16551E-02  1200   0.148E-02 0.210E-05
CGA:   3    -0.593664970233E+03   -0.38358E-03   -0.38354E-03  1200   0.238E-03-0.779E-06
CGA:   4    -0.593665029195E+03   -0.58961E-04   -0.58978E-04  1200   0.489E-04 0.241E-06
CGA:   5    -0.593665042563E+03   -0.13368E-04   -0.13371E-04  1200   0.107E-04 0.566E-07
CGA:   6    -0.593665046112E+03   -0.35488E-05   -0.35493E-05  1200   0.329E-05-0.277E-07
CGA:   7    -0.593665047305E+03   -0.11927E-05   -0.11937E-05  1200   0.107E-05-0.238E-07
CGA:   8    -0.593665047694E+03   -0.38980E-06   -0.38982E-06  1200   0.275E-06-0.463E-08
  10 F= -.59366505E+03 E0= -.59366505E+03  d E =-.420661E-03
       N       E                     dE             d eps       ncg     rms          ort
SDA:   1    -0.593646924857E+03    0.18122E-01    0.00000E+00  1200   0.452E-01 0.000E+00
CGA:   2    -0.593661821651E+03   -0.14897E-01   -0.14897E-01  1200   0.134E-01 0.469E-05
CGA:   3    -0.593665273574E+03   -0.34519E-02   -0.34519E-02  1200   0.214E-02-0.206E-05
CGA:   4    -0.593665805791E+03   -0.53222E-03   -0.53226E-03  1200   0.443E-03 0.730E-06
CGA:   5    -0.593665926834E+03   -0.12104E-03   -0.12105E-03  1200   0.961E-04 0.166E-06
CGA:   6    -0.593665958726E+03   -0.31892E-04   -0.31893E-04  1200   0.295E-04-0.576E-07
CGA:   7    -0.593665969405E+03   -0.10679E-04   -0.10682E-04  1200   0.956E-05-0.522E-07
CGA:   8    -0.593665972897E+03   -0.34914E-05   -0.34921E-05  1200   0.246E-05-0.142E-07
  11 F= -.59366597E+03 E0= -.59366597E+03  d E =-.134586E-02
       N       E                     dE             d eps       ncg     rms          ort
SDA:   1    -0.593590087569E+03    0.75882E-01    0.00000E+00  1200   0.181E+00 0.000E+00
CGA:   2    -0.593649689188E+03   -0.59602E-01   -0.59602E-01  1200   0.536E-01-0.534E-05
CGA:   3    -0.593663511832E+03   -0.13823E-01   -0.13823E-01  1200   0.858E-02-0.203E-05
CGA:   4    -0.593665646894E+03   -0.21351E-02   -0.21351E-02  1200   0.177E-02 0.128E-05
CGA:   5    -0.593666131497E+03   -0.48460E-03   -0.48461E-03  1200   0.385E-03 0.306E-06
CGA:   6    -0.593666259292E+03   -0.12780E-03   -0.12780E-03  1200   0.118E-03-0.326E-07
CGA:   7    -0.593666302131E+03   -0.42839E-04   -0.42842E-04  1200   0.383E-04-0.461E-07
CGA:   8    -0.593666316150E+03   -0.14018E-04   -0.14019E-04  1200   0.986E-05-0.184E-07
CGA:   9    -0.593666319659E+03   -0.35091E-05   -0.35046E-05  1200   0.220E-05 0.117E-06
  12 F= -.59366632E+03 E0= -.59366632E+03  d E =-.169263E-02
       N       E                     dE             d eps       ncg     rms          ort
SDA:   1    -0.593658268113E+03    0.80480E-02    0.00000E+00  1200   0.194E-01 0.000E+00
CGA:   2    -0.593664649542E+03   -0.63814E-02   -0.63815E-02  1200   0.573E-02-0.321E-05
CGA:   3    -0.593666128080E+03   -0.14785E-02   -0.14786E-02  1200   0.916E-03 0.163E-05
CGA:   4    -0.593666356262E+03   -0.22818E-03   -0.22815E-03  1200   0.189E-03-0.473E-06
CGA:   5    -0.593666408106E+03   -0.51844E-04   -0.51840E-04  1200   0.407E-04-0.978E-07
CGA:   6    -0.593666421514E+03   -0.13409E-04   -0.13407E-04  1200   0.123E-04 0.791E-07
CGA:   7    -0.593666425942E+03   -0.44276E-05   -0.44249E-05  1200   0.394E-05 0.574E-07
CGA:   8    -0.593666427385E+03   -0.14431E-05   -0.14421E-05  1200   0.101E-05 0.144E-07
  13 F= -.59366643E+03 E0= -.59366643E+03  d E =-.180035E-02
       N       E                     dE             d eps       ncg     rms          ort
SDA:   1    -0.593663653204E+03    0.27727E-02    0.00000E+00  1200   0.759E-02 0.000E+00
CGA:   2    -0.593666177398E+03   -0.25242E-02   -0.25242E-02  1200   0.225E-02-0.365E-06
CGA:   3    -0.593666761299E+03   -0.58390E-03   -0.58390E-03  1200   0.354E-03-0.425E-07
CGA:   4    -0.593666849484E+03   -0.88184E-04   -0.88205E-04  1200   0.743E-04 0.293E-06
CGA:   5    -0.593666869536E+03   -0.20052E-04   -0.20059E-04  1200   0.157E-04 0.148E-06
CGA:   6    -0.593666874787E+03   -0.52518E-05   -0.52541E-05  1200   0.477E-05-0.112E-06
CGA:   7    -0.593666876521E+03   -0.17331E-05   -0.17363E-05  1200   0.155E-05-0.621E-07
CGA:   8    -0.593666877065E+03   -0.54413E-06   -0.54285E-06  1200   0.379E-06 0.367E-07
  14 F= -.59366688E+03 E0= -.59366688E+03  d E =-.449680E-03
       N       E                     dE             d eps       ncg     rms          ort
SDA:   1    -0.593638721178E+03    0.28155E-01    0.00000E+00  1200   0.684E-01 0.000E+00
CGA:   2    -0.593661446103E+03   -0.22725E-01   -0.22725E-01  1200   0.202E-01 0.192E-05
CGA:   3    -0.593666705778E+03   -0.52597E-02   -0.52596E-02  1200   0.318E-02-0.605E-06
CGA:   4    -0.593667501400E+03   -0.79562E-03   -0.79568E-03  1200   0.662E-03 0.840E-06
CGA:   5    -0.593667680825E+03   -0.17942E-03   -0.17944E-03  1200   0.142E-03 0.418E-06
CGA:   6    -0.593667728388E+03   -0.47563E-04   -0.47570E-04  1200   0.434E-04-0.308E-06
CGA:   7    -0.593667744161E+03   -0.15773E-04   -0.15781E-04  1200   0.141E-04-0.156E-06
CGA:   8    -0.593667749254E+03   -0.50933E-05   -0.50884E-05  1200   0.357E-05 0.115E-06
CGA:   9    -0.593667750530E+03   -0.12757E-05   -0.12741E-05  1200   0.809E-06 0.487E-07
  15 F= -.59366775E+03 E0= -.59366775E+03  d E =-.132314E-02
       N       E                     dE             d eps       ncg     rms          ort
SDA:   1    -0.593551201393E+03    0.11655E+00    0.00000E+00  1200   0.274E+00 0.000E+00
CGA:   2    -0.593642130701E+03   -0.90929E-01   -0.90929E-01  1200   0.810E-01 0.178E-04
CGA:   3    -0.593663172355E+03   -0.21042E-01   -0.21042E-01  1200   0.127E-01-0.326E-05
CGA:   4    -0.593666363769E+03   -0.31914E-02   -0.31915E-02  1200   0.266E-02 0.121E-05
CGA:   5    -0.593667085786E+03   -0.72202E-03   -0.72204E-03  1200   0.574E-03 0.644E-06
CGA:   6    -0.593667277370E+03   -0.19158E-03   -0.19159E-03  1200   0.175E-03-0.531E-06
CGA:   7    -0.593667341013E+03   -0.63643E-04   -0.63654E-04  1200   0.567E-04-0.225E-06
CGA:   8    -0.593667361653E+03   -0.20640E-04   -0.20629E-04  1200   0.145E-04 0.237E-06
CGA:   9    -0.593667366835E+03   -0.51824E-05   -0.51792E-05  1200   0.329E-05 0.966E-07
CGA:  10    -0.593667368049E+03   -0.12138E-05   -0.12142E-05  1200   0.792E-06-0.871E-08
  16 F= -.59366737E+03 E0= -.59366737E+03  d E =-.940664E-03
       N       E                     dE             d eps       ncg     rms          ort
SDA:   1    -0.593621024365E+03    0.46342E-01    0.00000E+00  1200   0.111E+00 0.000E+00
CGA:   2    -0.593657753434E+03   -0.36729E-01   -0.36729E-01  1200   0.327E-01-0.263E-05
CGA:   3    -0.593666258029E+03   -0.85046E-02   -0.85048E-02  1200   0.513E-02 0.232E-05
CGA:   4    -0.593667539765E+03   -0.12817E-02   -0.12817E-02  1200   0.107E-02-0.834E-06
CGA:   5    -0.593667828992E+03   -0.28923E-03   -0.28920E-03  1200   0.228E-03-0.489E-06
CGA:   6    -0.593667904438E+03   -0.75446E-04   -0.75439E-04  1200   0.678E-04 0.547E-06
CGA:   7    -0.593667929091E+03   -0.24653E-04   -0.24639E-04  1200   0.218E-04 0.308E-06
CGA:   8    -0.593667937193E+03   -0.81021E-05   -0.81076E-05  1200   0.576E-05-0.115E-06
CGA:   9    -0.593667939243E+03   -0.20503E-05   -0.20517E-05  1200   0.131E-05-0.463E-07
  17 F= -.59366794E+03 E0= -.59366794E+03  d E =-.151186E-02
       N       E                     dE             d eps       ncg     rms          ort
SDA:   1    -0.593661557713E+03    0.63795E-02    0.00000E+00  1200   0.168E-01 0.000E+00
CGA:   2    -0.593667031740E+03   -0.54740E-02   -0.54740E-02  1200   0.492E-02-0.114E-05
CGA:   3    -0.593668321235E+03   -0.12895E-02   -0.12895E-02  1200   0.786E-03 0.633E-06
CGA:   4    -0.593668519540E+03   -0.19830E-03   -0.19834E-03  1200   0.163E-03 0.502E-06
CGA:   5    -0.593668564077E+03   -0.44538E-04   -0.44547E-04  1200   0.349E-04 0.206E-06
CGA:   6    -0.593668575763E+03   -0.11685E-04   -0.11687E-04  1200   0.107E-04-0.161E-06
CGA:   7    -0.593668579609E+03   -0.38460E-05   -0.38496E-05  1200   0.342E-05-0.768E-07
CGA:   8    -0.593668580812E+03   -0.12034E-05   -0.12010E-05  1200   0.826E-06 0.684E-07
  18 F= -.59366858E+03 E0= -.59366858E+03  d E =-.641569E-03
       N       E                     dE             d eps       ncg     rms          ort
SDA:   1    -0.593606864593E+03    0.61715E-01    0.00000E+00  1200   0.151E+00 0.000E+00
CGA:   2    -0.593656125801E+03   -0.49261E-01   -0.49261E-01  1200   0.443E-01-0.901E-05
CGA:   3    -0.593667724068E+03   -0.11598E-01   -0.11599E-01  1200   0.707E-02 0.257E-05
CGA:   4    -0.593669511006E+03   -0.17869E-02   -0.17870E-02  1200   0.147E-02 0.130E-05
CGA:   5    -0.593669912582E+03   -0.40158E-03   -0.40160E-03  1200   0.318E-03 0.584E-06
CGA:   6    -0.593670018894E+03   -0.10631E-03   -0.10632E-03  1200   0.975E-04-0.382E-06
CGA:   7    -0.593670054164E+03   -0.35270E-04   -0.35278E-04  1200   0.313E-04-0.162E-06
CGA:   8    -0.593670065432E+03   -0.11269E-04   -0.11259E-04  1200   0.781E-05 0.230E-06
CGA:   9    -0.593670068219E+03   -0.27872E-05   -0.27839E-05  1200   0.172E-05 0.872E-07
  19 F= -.59367007E+03 E0= -.59367007E+03  d E =-.212898E-02
       N       E                     dE             d eps       ncg     rms          ort
SDA:   1    -0.593418201316E+03    0.25186E+00    0.00000E+00  1200   0.605E+00 0.000E+00
CGA:   2    -0.593615242764E+03   -0.19704E+00   -0.19704E+00  1200   0.178E+00-0.633E-04
CGA:   3    -0.593661657927E+03   -0.46415E-01   -0.46420E-01  1200   0.284E-01 0.159E-04
CGA:   4    -0.593668840783E+03   -0.71829E-02   -0.71826E-02  1200   0.591E-02 0.668E-06
CGA:   5    -0.593670458541E+03   -0.16178E-02   -0.16178E-02  1200   0.128E-02 0.887E-06
CGA:   6    -0.593670887591E+03   -0.42905E-03   -0.42906E-03  1200   0.395E-03-0.462E-06
CGA:   7    -0.593671030519E+03   -0.14293E-03   -0.14293E-03  1200   0.127E-03-0.954E-07
CGA:   8    -0.593671076344E+03   -0.45825E-04   -0.45804E-04  1200   0.318E-04 0.513E-06
CGA:   9    -0.593671087684E+03   -0.11340E-04   -0.11333E-04  1200   0.698E-05 0.185E-06
CGA:  10    -0.593671090273E+03   -0.25892E-05   -0.25909E-05  1200   0.167E-05-0.440E-07
  20 F= -.59367109E+03 E0= -.59367109E+03  d E =-.315103E-02
       N       E                     dE             d eps       ncg     rms          ort
SDA:   1    -0.593656510736E+03    0.14577E-01    0.00000E+00  1200   0.367E-01 0.000E+00
CGA:   2    -0.593668605591E+03   -0.12095E-01   -0.12095E-01  1200   0.108E-01-0.156E-05
CGA:   3    -0.593671397886E+03   -0.27923E-02   -0.27923E-02  1200   0.170E-02 0.517E-06
CGA:   4    -0.593671825778E+03   -0.42789E-03   -0.42795E-03  1200   0.354E-03 0.745E-06
CGA:   5    -0.593671922044E+03   -0.96265E-04   -0.96292E-04  1200   0.758E-04 0.531E-06
CGA:   6    -0.593671947474E+03   -0.25430E-04   -0.25434E-04  1200   0.232E-04-0.246E-06
CGA:   7    -0.593671955909E+03   -0.84354E-05   -0.84418E-05  1200   0.748E-05-0.150E-06
CGA:   8    -0.593671958563E+03   -0.26538E-05   -0.26493E-05  1200   0.184E-05 0.110E-06
  21 F= -.59367196E+03 E0= -.59367196E+03  d E =-.868290E-03
       N       E                     dE             d eps       ncg     rms          ort
SDA:   1    -0.593535057983E+03    0.13690E+00    0.00000E+00  1200   0.330E+00 0.000E+00
CGA:   2    -0.593643958300E+03   -0.10890E+00   -0.10890E+00  1200   0.970E-01 0.835E-05
CGA:   3    -0.593669130938E+03   -0.25173E-01   -0.25173E-01  1200   0.153E-01 0.982E-08
CGA:   4    -0.593672997264E+03   -0.38663E-02   -0.38664E-02  1200   0.319E-02 0.188E-05
CGA:   5    -0.593673866712E+03   -0.86945E-03   -0.86951E-03  1200   0.692E-03 0.146E-05
CGA:   6    -0.593674097606E+03   -0.23089E-03   -0.23090E-03  1200   0.210E-03-0.558E-06
CGA:   7    -0.593674173918E+03   -0.76311E-04   -0.76326E-04  1200   0.673E-04-0.301E-06
CGA:   8    -0.593674198229E+03   -0.24311E-04   -0.24296E-04  1200   0.169E-04 0.362E-06
CGA:   9    -0.593674204260E+03   -0.60308E-05   -0.60259E-05  1200   0.376E-05 0.138E-06
CGA:  10    -0.593674205660E+03   -0.13998E-05   -0.14015E-05  1200   0.911E-06-0.332E-07
  22 F= -.59367421E+03 E0= -.59367421E+03  d E =-.311539E-02
       N       E                     dE             d eps       ncg     rms          ort
SDA:   1    -0.593120106659E+03    0.55410E+00    0.00000E+00  1200   0.132E+01 0.000E+00
CGA:   2    -0.593555796458E+03   -0.43569E+00   -0.43569E+00  1200   0.389E+00 0.373E-04
CGA:   3    -0.593656600228E+03   -0.10080E+00   -0.10081E+00  1200   0.616E-01 0.244E-04
CGA:   4    -0.593672185750E+03   -0.15586E-01   -0.15585E-01  1200   0.129E-01 0.209E-06
CGA:   5    -0.593675700528E+03   -0.35148E-02   -0.35149E-02  1200   0.280E-02 0.210E-05
CGA:   6    -0.593676635785E+03   -0.93526E-03   -0.93526E-03  1200   0.854E-03-0.580E-06
CGA:   7    -0.593676946355E+03   -0.31057E-03   -0.31057E-03  1200   0.273E-03-0.814E-07
CGA:   8    -0.593677045465E+03   -0.99109E-04   -0.99076E-04  1200   0.688E-04 0.818E-06
CGA:   9    -0.593677070056E+03   -0.24591E-04   -0.24582E-04  1200   0.153E-04 0.296E-06
CGA:  10    -0.593677075692E+03   -0.56363E-05   -0.56391E-05  1200   0.363E-05-0.701E-07
CGA:  11    -0.593677077121E+03   -0.14290E-05   -0.14317E-05  1200   0.944E-06-0.385E-07
  23 F= -.59367708E+03 E0= -.59367708E+03  d E =-.598685E-02
       N       E                     dE             d eps       ncg     rms          ort
SDA:   1    -0.591446413841E+03    0.22307E+01    0.00000E+00  1200   0.530E+01 0.000E+00
CGA:   2    -0.593187740502E+03   -0.17413E+01   -0.17413E+01  1200   0.157E+01-0.592E-03
CGA:   3    -0.593592254499E+03   -0.40451E+00   -0.40475E+00  1200   0.250E+00 0.679E-03
CGA:   4    -0.593655929360E+03   -0.63675E-01   -0.63665E-01  1200   0.523E-01-0.313E-04
CGA:   5    -0.593670350890E+03   -0.14422E-01   -0.14422E-01  1200   0.116E-01 0.122E-05
CGA:   6    -0.593674247944E+03   -0.38971E-02   -0.38970E-02  1200   0.360E-02 0.105E-05
CGA:   7    -0.593675559323E+03   -0.13114E-02   -0.13113E-02  1200   0.115E-02 0.168E-05
CGA:   8    -0.593675977467E+03   -0.41814E-03   -0.41807E-03  1200   0.289E-03 0.196E-05
CGA:   9    -0.593676080935E+03   -0.10347E-03   -0.10345E-03  1200   0.634E-04 0.664E-06
CGA:  10    -0.593676104297E+03   -0.23361E-04   -0.23367E-04  1200   0.149E-04-0.166E-06
CGA:  11    -0.593676110153E+03   -0.58561E-05   -0.58618E-05  1200   0.387E-05-0.874E-07
CGA:  12    -0.593676111671E+03   -0.15180E-05   -0.15116E-05  1200   0.978E-06 0.118E-06
  24 F= -.59367611E+03 E0= -.59367611E+03  d E =-.502140E-02
       N       E                     dE             d eps       ncg     rms          ort
SDA:   1    -0.592831957880E+03    0.84415E+00    0.00000E+00  1200   0.201E+01 0.000E+00
CGA:   2    -0.593494136066E+03   -0.66218E+00   -0.66217E+00  1200   0.590E+00-0.114E-03
CGA:   3    -0.593647090595E+03   -0.15295E+00   -0.15299E+00  1200   0.932E-01 0.195E-03
CGA:   4    -0.593670503147E+03   -0.23413E-01   -0.23412E-01  1200   0.195E-01 0.628E-05
CGA:   5    -0.593675782462E+03   -0.52793E-02   -0.52794E-02  1200   0.414E-02-0.677E-06
CGA:   6    -0.593677154531E+03   -0.13721E-02   -0.13721E-02  1200   0.123E-02 0.374E-05
CGA:   7    -0.593677599116E+03   -0.44459E-03   -0.44452E-03  1200   0.389E-03 0.202E-05
CGA:   8    -0.593677741274E+03   -0.14216E-03   -0.14218E-03  1200   0.999E-04-0.475E-06
CGA:   9    -0.593677776860E+03   -0.35586E-04   -0.35588E-04  1200   0.225E-04-0.112E-06
CGA:  10    -0.593677785008E+03   -0.81485E-05   -0.81456E-05  1200   0.525E-05 0.110E-06
CGA:  11    -0.593677787055E+03   -0.20469E-05   -0.20442E-05  1200   0.132E-05 0.556E-07
  25 F= -.59367779E+03 E0= -.59367779E+03  d E =-.669678E-02
       N       E                     dE             d eps       ncg     rms          ort
SDA:   1    -0.593558045517E+03    0.11974E+00    0.00000E+00  1200   0.291E+00 0.000E+00
CGA:   2    -0.593653849690E+03   -0.95804E-01   -0.95804E-01  1200   0.851E-01 0.150E-05
CGA:   3    -0.593675933273E+03   -0.22084E-01   -0.22085E-01  1200   0.134E-01 0.143E-05
CGA:   4    -0.593679326678E+03   -0.33934E-02   -0.33935E-02  1200   0.275E-02 0.185E-05
CGA:   5    -0.593680079369E+03   -0.75269E-03   -0.75277E-03  1200   0.586E-03 0.133E-05
CGA:   6    -0.593680275134E+03   -0.19576E-03   -0.19576E-03  1200   0.175E-03 0.897E-08
CGA:   7    -0.593680338759E+03   -0.63625E-04   -0.63621E-04  1200   0.559E-04 0.120E-06
CGA:   8    -0.593680359015E+03   -0.20256E-04   -0.20246E-04  1200   0.141E-04 0.330E-06
CGA:   9    -0.593680364060E+03   -0.50459E-05   -0.50430E-05  1200   0.314E-05 0.122E-06
CGA:  10    -0.593680365237E+03   -0.11768E-05   -0.11786E-05  1200   0.757E-06-0.423E-07
  26 F= -.59368037E+03 E0= -.59368037E+03  d E =-.257818E-02
       N       E                     dE             d eps       ncg     rms          ort
SDA:   1    -0.593206763349E+03    0.47360E+00    0.00000E+00  1200   0.113E+01 0.000E+00
CGA:   2    -0.593579110014E+03   -0.37235E+00   -0.37235E+00  1200   0.332E+00-0.907E-04
CGA:   3    -0.593665059333E+03   -0.85949E-01   -0.85968E-01  1200   0.524E-01 0.358E-04
CGA:   4    -0.593678342652E+03   -0.13283E-01   -0.13283E-01  1200   0.107E-01 0.615E-06
CGA:   5    -0.593681283940E+03   -0.29413E-02   -0.29414E-02  1200   0.229E-02 0.214E-05
CGA:   6    -0.593682049755E+03   -0.76581E-03   -0.76581E-03  1200   0.688E-03 0.567E-06
CGA:   7    -0.593682300171E+03   -0.25042E-03   -0.25039E-03  1200   0.220E-03 0.675E-06
CGA:   8    -0.593682380223E+03   -0.80052E-04   -0.80029E-04  1200   0.558E-04 0.752E-06
CGA:   9    -0.593682400226E+03   -0.20003E-04   -0.19996E-04  1200   0.124E-04 0.267E-06
CGA:  10    -0.593682404847E+03   -0.46214E-05   -0.46248E-05  1200   0.296E-05-0.903E-07
  27 F= -.59368240E+03 E0= -.59368240E+03  d E =-.461779E-02
       N       E                     dE             d eps       ncg     rms          ort
SDA:   1    -0.593595603790E+03    0.86796E-01    0.00000E+00  1200   0.210E+00 0.000E+00
CGA:   2    -0.593665135319E+03   -0.69532E-01   -0.69532E-01  1200   0.627E-01-0.145E-05
CGA:   3    -0.593681242891E+03   -0.16108E-01   -0.16108E-01  1200   0.988E-02-0.236E-05
CGA:   4    -0.593683733605E+03   -0.24907E-02   -0.24909E-02  1200   0.203E-02 0.182E-05
CGA:   5    -0.593684289163E+03   -0.55556E-03   -0.55558E-03  1200   0.433E-03 0.474E-06
CGA:   6    -0.593684433517E+03   -0.14435E-03   -0.14436E-03  1200   0.129E-03-0.284E-06
CGA:   7    -0.593684480587E+03   -0.47070E-04   -0.47070E-04  1200   0.411E-04 0.130E-08
CGA:   8    -0.593684495478E+03   -0.14891E-04   -0.14884E-04  1200   0.105E-04 0.224E-06
CGA:   9    -0.593684499219E+03   -0.37411E-05   -0.37384E-05  1200   0.234E-05 0.104E-06
  28 F= -.59368450E+03 E0= -.59368450E+03  d E =-.209437E-02
       N       E                     dE             d eps       ncg     rms          ort
SDA:   1    -0.593000102029E+03    0.68439E+00    0.00000E+00  1200   0.163E+01 0.000E+00
CGA:   2    -0.593536918033E+03   -0.53682E+00   -0.53681E+00  1200   0.486E+00-0.176E-03
CGA:   3    -0.593661611624E+03   -0.12469E+00   -0.12472E+00  1200   0.768E-01 0.696E-04
CGA:   4    -0.593681008819E+03   -0.19397E-01   -0.19397E-01  1200   0.158E-01 0.269E-05
CGA:   5    -0.593685332226E+03   -0.43234E-02   -0.43235E-02  1200   0.338E-02 0.930E-06
CGA:   6    -0.593686461574E+03   -0.11293E-02   -0.11293E-02  1200   0.102E-02 0.144E-06
CGA:   7    -0.593686831563E+03   -0.36999E-03   -0.36996E-03  1200   0.324E-03 0.731E-06
CGA:   8    -0.593686949341E+03   -0.11778E-03   -0.11775E-03  1200   0.827E-04 0.778E-06
CGA:   9    -0.593686978955E+03   -0.29614E-04   -0.29605E-04  1200   0.184E-04 0.346E-06
CGA:  10    -0.593686985796E+03   -0.68404E-05   -0.68450E-05  1200   0.443E-05-0.111E-06
CGA:  11    -0.593686987547E+03   -0.17517E-05   -0.17566E-05  1200   0.116E-05-0.700E-07
  29 F= -.59368699E+03 E0= -.59368699E+03  d E =-.458270E-02
       N       E                     dE             d eps       ncg     rms          ort
SDA:   1    -0.593519255510E+03    0.16773E+00    0.00000E+00  1200   0.399E+00 0.000E+00
CGA:   2    -0.593651573581E+03   -0.13232E+00   -0.13232E+00  1200   0.119E+00 0.345E-05
CGA:   3    -0.593681996751E+03   -0.30423E-01   -0.30425E-01  1200   0.187E-01 0.205E-05
CGA:   4    -0.593686786841E+03   -0.47901E-02   -0.47901E-02  1200   0.382E-02 0.160E-05
CGA:   5    -0.593687849131E+03   -0.10623E-02   -0.10623E-02  1200   0.839E-03 0.500E-06
CGA:   6    -0.593688131943E+03   -0.28281E-03   -0.28282E-03  1200   0.255E-03-0.389E-06
CGA:   7    -0.593688225683E+03   -0.93740E-04   -0.93733E-04  1200   0.820E-04 0.166E-06
CGA:   8    -0.593688255314E+03   -0.29630E-04   -0.29615E-04  1200   0.206E-04 0.483E-06
CGA:   9    -0.593688262711E+03   -0.73970E-05   -0.73939E-05  1200   0.463E-05 0.122E-06
CGA:  10    -0.593688264453E+03   -0.17427E-05   -0.17447E-05  1200   0.111E-05-0.524E-07
  30 F= -.59368826E+03 E0= -.59368826E+03  d E =-.127691E-02
       N       E                     dE             d eps       ncg     rms          ort
SDA:   1    -0.593684605155E+03    0.36576E-02    0.00000E+00  1200   0.873E-02 0.000E+00
CGA:   2    -0.593687499670E+03   -0.28945E-02   -0.28945E-02  1200   0.260E-02 0.293E-06
CGA:   3    -0.593688166644E+03   -0.66697E-03   -0.66699E-03  1200   0.409E-03 0.183E-06
CGA:   4    -0.593688271222E+03   -0.10458E-03   -0.10455E-03  1200   0.839E-04-0.343E-06
CGA:   5    -0.593688294428E+03   -0.23206E-04   -0.23201E-04  1200   0.185E-04-0.921E-07
CGA:   6    -0.593688300559E+03   -0.61306E-05   -0.61305E-05  1200   0.544E-05 0.114E-06
CGA:   7    -0.593688302567E+03   -0.20086E-05   -0.20080E-05  1200   0.175E-05 0.177E-07
CGA:   8    -0.593688303228E+03   -0.66029E-06   -0.66329E-06  1200   0.474E-06-0.613E-07
  31 F= -.59368830E+03 E0= -.59368830E+03  d E =-.131568E-02
       N       E                     dE             d eps       ncg     rms          ort
SDA:   1    -0.593667449870E+03    0.20853E-01    0.00000E+00  1200   0.520E-01 0.000E+00
CGA:   2    -0.593684407922E+03   -0.16958E-01   -0.16958E-01  1200   0.155E-01-0.228E-07
CGA:   3    -0.593688394439E+03   -0.39865E-02   -0.39866E-02  1200   0.245E-02 0.143E-05
CGA:   4    -0.593689016510E+03   -0.62207E-03   -0.62213E-03  1200   0.496E-03 0.754E-06
CGA:   5    -0.593689153143E+03   -0.13663E-03   -0.13666E-03  1200   0.106E-03 0.616E-06
CGA:   6    -0.593689188699E+03   -0.35556E-04   -0.35558E-04  1200   0.317E-04-0.166E-06
CGA:   7    -0.593689200294E+03   -0.11595E-04   -0.11597E-04  1200   0.100E-04-0.277E-07
CGA:   8    -0.593689203859E+03   -0.35652E-05   -0.35588E-05  1200   0.248E-05 0.211E-06
  32 F= -.59368920E+03 E0= -.59368920E+03  d E =-.900632E-03
       N       E                     dE             d eps       ncg     rms          ort
SDA:   1    -0.593592582732E+03    0.96618E-01    0.00000E+00  1200   0.233E+00 0.000E+00
CGA:   2    -0.593668501835E+03   -0.75919E-01   -0.75919E-01  1200   0.696E-01 0.135E-04
CGA:   3    -0.593686344643E+03   -0.17843E-01   -0.17843E-01  1200   0.109E-01 0.261E-05
CGA:   4    -0.593689133678E+03   -0.27890E-02   -0.27891E-02  1200   0.221E-02 0.147E-05
CGA:   5    -0.593689745116E+03   -0.61144E-03   -0.61149E-03  1200   0.480E-03 0.123E-05
CGA:   6    -0.593689905637E+03   -0.16052E-03   -0.16053E-03  1200   0.144E-03-0.270E-06
CGA:   7    -0.593689958302E+03   -0.52665E-04   -0.52665E-04  1200   0.456E-04 0.450E-08
CGA:   8    -0.593689974710E+03   -0.16408E-04   -0.16391E-04  1200   0.115E-04 0.465E-06
CGA:   9    -0.593689978827E+03   -0.41164E-05   -0.41137E-05  1200   0.257E-05 0.830E-07
  33 F= -.59368998E+03 E0= -.59368998E+03  d E =-.167560E-02
       N       E                     dE             d eps       ncg     rms          ort
SDA:   1    -0.593679584422E+03    0.10390E-01    0.00000E+00  1200   0.264E-01 0.000E+00
CGA:   2    -0.593688346012E+03   -0.87616E-02   -0.87616E-02  1200   0.778E-02-0.982E-06
CGA:   3    -0.593690311887E+03   -0.19659E-02   -0.19659E-02  1200   0.120E-02 0.853E-06
CGA:   4    -0.593690617538E+03   -0.30565E-03   -0.30569E-03  1200   0.241E-03 0.624E-06
CGA:   5    -0.593690683289E+03   -0.65751E-04   -0.65779E-04  1200   0.518E-04 0.588E-06
CGA:   6    -0.593690700603E+03   -0.17314E-04   -0.17316E-04  1200   0.153E-04-0.158E-06
CGA:   7    -0.593690706265E+03   -0.56623E-05   -0.56679E-05  1200   0.487E-05-0.115E-06
CGA:   8    -0.593690707977E+03   -0.17113E-05   -0.17068E-05  1200   0.119E-05 0.133E-06
  34 F= -.59369071E+03 E0= -.59369071E+03  d E =-.729150E-03
       N       E                     dE             d eps       ncg     rms          ort
SDA:   1    -0.593592258577E+03    0.98448E-01    0.00000E+00  1200   0.237E+00 0.000E+00
CGA:   2    -0.593671092659E+03   -0.78834E-01   -0.78834E-01  1200   0.700E-01 0.203E-04
CGA:   3    -0.593688795343E+03   -0.17703E-01   -0.17703E-01  1200   0.108E-01 0.109E-05
CGA:   4    -0.593691556637E+03   -0.27613E-02   -0.27614E-02  1200   0.216E-02 0.187E-05
CGA:   5    -0.593692150147E+03   -0.59351E-03   -0.59358E-03  1200   0.467E-03 0.171E-05
CGA:   6    -0.593692305477E+03   -0.15533E-03   -0.15534E-03  1200   0.137E-03-0.341E-06
CGA:   7    -0.593692356081E+03   -0.50604E-04   -0.50615E-04  1200   0.432E-04-0.219E-06
CGA:   8    -0.593692371653E+03   -0.15572E-04   -0.15555E-04  1200   0.108E-04 0.423E-06
CGA:   9    -0.593692375546E+03   -0.38927E-05   -0.38895E-05  1200   0.245E-05 0.914E-07
  35 F= -.59369238E+03 E0= -.59369238E+03  d E =-.239672E-02
       N       E                     dE             d eps       ncg     rms          ort
SDA:   1    -0.593293175235E+03    0.39920E+00    0.00000E+00  1200   0.948E+00 0.000E+00
CGA:   2    -0.593608353411E+03   -0.31518E+00   -0.31518E+00  1200   0.280E+00 0.153E-03
CGA:   3    -0.593679044609E+03   -0.70691E-01   -0.70694E-01  1200   0.434E-01 0.648E-05
CGA:   4    -0.593690128872E+03   -0.11084E-01   -0.11084E-01  1200   0.869E-02 0.268E-05
CGA:   5    -0.593692524475E+03   -0.23956E-02   -0.23957E-02  1200   0.189E-02 0.315E-05
CGA:   6    -0.593693155179E+03   -0.63070E-03   -0.63071E-03  1200   0.558E-03-0.130E-06
CGA:   7    -0.593693361758E+03   -0.20658E-03   -0.20658E-03  1200   0.176E-03-0.522E-07
CGA:   8    -0.593693425524E+03   -0.63766E-04   -0.63728E-04  1200   0.444E-04 0.922E-06
CGA:   9    -0.593693441420E+03   -0.15896E-04   -0.15890E-04  1200   0.995E-05 0.199E-06
CGA:  10    -0.593693445146E+03   -0.37257E-05   -0.37317E-05  1200   0.244E-05-0.121E-06
  36 F= -.59369345E+03 E0= -.59369345E+03  d E =-.346632E-02
       N       E                     dE             d eps       ncg     rms          ort
SDA:   1    -0.593666432420E+03    0.27009E-01    0.00000E+00  1200   0.660E-01 0.000E+00
CGA:   2    -0.593688332934E+03   -0.21901E-01   -0.21900E-01  1200   0.197E-01 0.609E-05
CGA:   3    -0.593693301827E+03   -0.49689E-02   -0.49689E-02  1200   0.307E-02-0.363E-06
CGA:   4    -0.593694081775E+03   -0.77995E-03   -0.78002E-03  1200   0.610E-03 0.108E-05
CGA:   5    -0.593694250464E+03   -0.16869E-03   -0.16872E-03  1200   0.131E-03 0.717E-06
CGA:   6    -0.593694294232E+03   -0.43768E-04   -0.43768E-04  1200   0.387E-04-0.320E-08
CGA:   7    -0.593694308465E+03   -0.14233E-04   -0.14229E-04  1200   0.122E-04 0.782E-07
CGA:   8    -0.593694312826E+03   -0.43610E-05   -0.43540E-05  1200   0.304E-05 0.213E-06
  37 F= -.59369431E+03 E0= -.59369431E+03  d E =-.867681E-03
       N       E                     dE             d eps       ncg     rms          ort
SDA:   1    -0.593479417282E+03    0.21489E+00    0.00000E+00  1200   0.511E+00 0.000E+00
CGA:   2    -0.593648986361E+03   -0.16957E+00   -0.16957E+00  1200   0.152E+00 0.343E-04
CGA:   3    -0.593687462800E+03   -0.38476E-01   -0.38478E-01  1200   0.238E-01 0.164E-05
CGA:   4    -0.593693522038E+03   -0.60592E-02   -0.60593E-02  1200   0.473E-02 0.245E-05
CGA:   5    -0.593694833259E+03   -0.13112E-02   -0.13113E-02  1200   0.103E-02 0.188E-05
CGA:   6    -0.593695176690E+03   -0.34343E-03   -0.34342E-03  1200   0.304E-03 0.338E-06
CGA:   7    -0.593695288520E+03   -0.11183E-03   -0.11181E-03  1200   0.955E-04 0.460E-06
CGA:   8    -0.593695323117E+03   -0.34597E-04   -0.34571E-04  1200   0.241E-04 0.641E-06
CGA:   9    -0.593695331753E+03   -0.86362E-05   -0.86304E-05  1200   0.543E-05 0.179E-06
CGA:  10    -0.593695333820E+03   -0.20666E-05   -0.20730E-05  1200   0.138E-05-0.114E-06
  38 F= -.59369533E+03 E0= -.59369533E+03  d E =-.188867E-02
       N       E                     dE             d eps       ncg     rms          ort
SDA:   1    -0.593687755425E+03    0.75763E-02    0.00000E+00  1200   0.195E-01 0.000E+00
CGA:   2    -0.593694270754E+03   -0.65153E-02   -0.65153E-02  1200   0.588E-02-0.910E-06
CGA:   3    -0.593695754128E+03   -0.14834E-02   -0.14833E-02  1200   0.933E-03-0.192E-05
CGA:   4    -0.593695991512E+03   -0.23738E-03   -0.23742E-03  1200   0.188E-03 0.507E-06
CGA:   5    -0.593696044103E+03   -0.52591E-04   -0.52584E-04  1200   0.412E-04-0.170E-06
CGA:   6    -0.593696057992E+03   -0.13889E-04   -0.13891E-04  1200   0.126E-04-0.128E-06
CGA:   7    -0.593696062588E+03   -0.45961E-05   -0.45955E-05  1200   0.396E-05 0.133E-07
CGA:   8    -0.593696064005E+03   -0.14174E-05   -0.14149E-05  1200   0.978E-06 0.666E-07
  39 F= -.59369606E+03 E0= -.59369606E+03  d E =-.730185E-03
       N       E                     dE             d eps       ncg     rms          ort
SDA:   1    -0.593622447216E+03    0.73615E-01    0.00000E+00  1200   0.176E+00 0.000E+00
CGA:   2    -0.593681072683E+03   -0.58625E-01   -0.58626E-01  1200   0.530E-01-0.369E-04
CGA:   3    -0.593694432132E+03   -0.13359E-01   -0.13361E-01  1200   0.839E-02-0.183E-05
CGA:   4    -0.593696572430E+03   -0.21403E-02   -0.21403E-02  1200   0.169E-02 0.120E-05
CGA:   5    -0.593697044641E+03   -0.47221E-03   -0.47219E-03  1200   0.372E-03-0.532E-06
CGA:   6    -0.593697169912E+03   -0.12527E-03   -0.12528E-03  1200   0.113E-03-0.262E-06
CGA:   7    -0.593697211296E+03   -0.41383E-04   -0.41378E-04  1200   0.357E-04 0.120E-06
CGA:   8    -0.593697224219E+03   -0.12923E-04   -0.12915E-04  1200   0.895E-05 0.216E-06
CGA:   9    -0.593697227409E+03   -0.31897E-05   -0.31862E-05  1200   0.196E-05 0.106E-06
  40 F= -.59369723E+03 E0= -.59369723E+03  d E =-.189359E-02
       N       E                     dE             d eps       ncg     rms          ort
SDA:   1    -0.593679853945E+03    0.17370E-01    0.00000E+00  1200   0.427E-01 0.000E+00
CGA:   2    -0.593694439023E+03   -0.14585E-01   -0.14585E-01  1200   0.133E-01-0.532E-06
CGA:   3    -0.593697717643E+03   -0.32786E-02   -0.32783E-02  1200   0.205E-02-0.505E-05
CGA:   4    -0.593698237591E+03   -0.51995E-03   -0.52000E-03  1200   0.411E-03 0.810E-06
CGA:   5    -0.593698351618E+03   -0.11403E-03   -0.11402E-03  1200   0.893E-04-0.180E-06
CGA:   6    -0.593698381299E+03   -0.29681E-04   -0.29683E-04  1200   0.265E-04-0.107E-06
CGA:   7    -0.593698390959E+03   -0.96608E-05   -0.96581E-05  1200   0.837E-05 0.658E-07
CGA:   8    -0.593698394028E+03   -0.30688E-05   -0.30664E-05  1200   0.219E-05 0.524E-07
  41 F= -.59369839E+03 E0= -.59369839E+03  d E =-.116662E-02
       N       E                     dE             d eps       ncg     rms          ort
SDA:   1    -0.593681897760E+03    0.16493E-01    0.00000E+00  1200   0.389E-01 0.000E+00
CGA:   2    -0.593695162173E+03   -0.13264E-01   -0.13264E-01  1200   0.121E-01-0.879E-07
CGA:   3    -0.593698147148E+03   -0.29850E-02   -0.29847E-02  1200   0.186E-02-0.486E-05
CGA:   4    -0.593698620185E+03   -0.47304E-03   -0.47308E-03  1200   0.370E-03 0.774E-06
CGA:   5    -0.593698723292E+03   -0.10311E-03   -0.10310E-03  1200   0.811E-04-0.186E-06
CGA:   6    -0.593698750239E+03   -0.26948E-04   -0.26949E-04  1200   0.240E-04-0.955E-07
CGA:   7    -0.593698759011E+03   -0.87720E-05   -0.87687E-05  1200   0.761E-05 0.612E-07
CGA:   8    -0.593698761799E+03   -0.27877E-05   -0.27858E-05  1200   0.198E-05 0.510E-07
  42 F= -.59369876E+03 E0= -.59369876E+03  d E =-.153439E-02
       N       E                     dE             d eps       ncg     rms          ort
SDA:   1    -0.593683776830E+03    0.14982E-01    0.00000E+00  1200   0.361E-01 0.000E+00
CGA:   2    -0.593696409085E+03   -0.12632E-01   -0.12632E-01  1200   0.108E-01 0.104E-07
CGA:   3    -0.593699057740E+03   -0.26487E-02   -0.26486E-02  1200   0.171E-02-0.129E-05
CGA:   4    -0.593699488180E+03   -0.43044E-03   -0.43048E-03  1200   0.344E-03 0.555E-06
CGA:   5    -0.593699584760E+03   -0.96579E-04   -0.96599E-04  1200   0.770E-04 0.521E-06
CGA:   6    -0.593699610771E+03   -0.26011E-04   -0.26012E-04  1200   0.235E-04-0.328E-07
CGA:   7    -0.593699619414E+03   -0.86423E-05   -0.86448E-05  1200   0.753E-05-0.503E-07
CGA:   8    -0.593699622117E+03   -0.27034E-05   -0.26986E-05  1200   0.191E-05 0.120E-06
  43 F= -.59369962E+03 E0= -.59369962E+03  d E =-.860318E-03
       N       E                     dE             d eps       ncg     rms          ort
SDA:   1    -0.593667384387E+03    0.32235E-01    0.00000E+00  1200   0.744E-01 0.000E+00
CGA:   2    -0.593693446930E+03   -0.26063E-01   -0.26063E-01  1200   0.222E-01-0.431E-05
CGA:   3    -0.593698912824E+03   -0.54659E-02   -0.54659E-02  1200   0.352E-02-0.151E-05
CGA:   4    -0.593699801156E+03   -0.88833E-03   -0.88838E-03  1200   0.711E-03 0.821E-06
CGA:   5    -0.593700000507E+03   -0.19935E-03   -0.19938E-03  1200   0.159E-03 0.738E-06
CGA:   6    -0.593700054010E+03   -0.53502E-04   -0.53502E-04  1200   0.482E-04-0.102E-07
CGA:   7    -0.593700071769E+03   -0.17759E-04   -0.17761E-04  1200   0.155E-04-0.493E-07
CGA:   8    -0.593700077358E+03   -0.55890E-05   -0.55811E-05  1200   0.396E-05 0.175E-06
CGA:   9    -0.593700078787E+03   -0.14290E-05   -0.14269E-05  1200   0.897E-06 0.701E-07
  44 F= -.59370008E+03 E0= -.59370008E+03  d E =-.131699E-02
       N       E                     dE             d eps       ncg     rms          ort
SDA:   1    -0.593689134408E+03    0.10943E-01    0.00000E+00  1200   0.272E-01 0.000E+00
CGA:   2    -0.593698585399E+03   -0.94510E-02   -0.94510E-02  1200   0.821E-02-0.149E-05
CGA:   3    -0.593700631604E+03   -0.20462E-02   -0.20463E-02  1200   0.129E-02 0.255E-05
CGA:   4    -0.593700956529E+03   -0.32493E-03   -0.32499E-03  1200   0.266E-03 0.940E-06
CGA:   5    -0.593701030671E+03   -0.74141E-04   -0.74171E-04  1200   0.593E-04 0.720E-06
CGA:   6    -0.593701050806E+03   -0.20135E-04   -0.20137E-04  1200   0.187E-04-0.102E-06
CGA:   7    -0.593701057602E+03   -0.67963E-05   -0.67975E-05  1200   0.596E-05-0.239E-07
CGA:   8    -0.593701059728E+03   -0.21257E-05   -0.21204E-05  1200   0.148E-05 0.149E-06
  45 F= -.59370106E+03 E0= -.59370106E+03  d E =-.980941E-03
       N       E                     dE             d eps       ncg     rms          ort
SDA:   1    -0.593653643338E+03    0.47414E-01    0.00000E+00  1200   0.110E+00 0.000E+00
CGA:   2    -0.593691849144E+03   -0.38206E-01   -0.38205E-01  1200   0.332E-01 0.694E-05
CGA:   3    -0.593700116280E+03   -0.82671E-02   -0.82671E-02  1200   0.520E-02 0.439E-05
CGA:   4    -0.593701429938E+03   -0.13137E-02   -0.13138E-02  1200   0.107E-02 0.201E-05
CGA:   5    -0.593701728811E+03   -0.29887E-03   -0.29893E-03  1200   0.239E-03 0.146E-05
CGA:   6    -0.593701809761E+03   -0.80950E-04   -0.80953E-04  1200   0.748E-04-0.147E-06
CGA:   7    -0.593701837019E+03   -0.27258E-04   -0.27258E-04  1200   0.239E-04 0.104E-07
CGA:   8    -0.593701845650E+03   -0.86307E-05   -0.86181E-05  1200   0.603E-05 0.308E-06
CGA:   9    -0.593701847834E+03   -0.21838E-05   -0.21817E-05  1200   0.136E-05 0.635E-07
  46 F= -.59370185E+03 E0= -.59370185E+03  d E =-.176905E-02
       N       E                     dE             d eps       ncg     rms          ort
SDA:   1    -0.593696594801E+03    0.52508E-02    0.00000E+00  1200   0.136E-01 0.000E+00
CGA:   2    -0.593701345457E+03   -0.47507E-02   -0.47507E-02  1200   0.405E-02-0.126E-05
CGA:   3    -0.593702349115E+03   -0.10037E-02   -0.10037E-02  1200   0.636E-03 0.161E-05
CGA:   4    -0.593702508148E+03   -0.15903E-03   -0.15907E-03  1200   0.132E-03 0.530E-06
CGA:   5    -0.593702544522E+03   -0.36374E-04   -0.36392E-04  1200   0.292E-04 0.404E-06
CGA:   6    -0.593702554432E+03   -0.99100E-05   -0.99121E-05  1200   0.911E-05-0.805E-07
CGA:   7    -0.593702557796E+03   -0.33642E-05   -0.33657E-05  1200   0.294E-05-0.410E-07
CGA:   8    -0.593702558830E+03   -0.10340E-05   -0.10308E-05  1200   0.722E-06 0.101E-06
  47 F= -.59370256E+03 E0= -.59370256E+03  d E =-.710996E-03
       N       E                     dE             d eps       ncg     rms          ort
SDA:   1    -0.593657873459E+03    0.44684E-01    0.00000E+00  1200   0.103E+00 0.000E+00
CGA:   2    -0.593694130050E+03   -0.36257E-01   -0.36256E-01  1200   0.308E-01 0.170E-04
CGA:   3    -0.593701786099E+03   -0.76560E-02   -0.76556E-02  1200   0.484E-02 0.327E-05
CGA:   4    -0.593703000016E+03   -0.12139E-02   -0.12141E-02  1200   0.994E-03 0.179E-05
CGA:   5    -0.593703276895E+03   -0.27688E-03   -0.27693E-03  1200   0.222E-03 0.117E-05
CGA:   6    -0.593703351773E+03   -0.74877E-04   -0.74880E-04  1200   0.686E-04-0.151E-06
CGA:   7    -0.593703377068E+03   -0.25295E-04   -0.25298E-04  1200   0.220E-04-0.534E-07
CGA:   8    -0.593703385008E+03   -0.79401E-05   -0.79283E-05  1200   0.558E-05 0.285E-06
CGA:   9    -0.593703387029E+03   -0.20210E-05   -0.20196E-05  1200   0.126E-05 0.460E-07
  48 F= -.59370339E+03 E0= -.59370339E+03  d E =-.153920E-02
       N       E                     dE             d eps       ncg     rms          ort
SDA:   1    -0.593700983919E+03    0.24011E-02    0.00000E+00  1200   0.663E-02 0.000E+00
CGA:   2    -0.593703284937E+03   -0.23010E-02   -0.23010E-02  1200   0.198E-02-0.666E-06
CGA:   3    -0.593703769759E+03   -0.48482E-03   -0.48485E-03  1200   0.318E-03 0.457E-06
CGA:   4    -0.593703848236E+03   -0.78476E-04   -0.78490E-04  1200   0.619E-04 0.174E-06
CGA:   5    -0.593703865158E+03   -0.16922E-04   -0.16939E-04  1200   0.129E-04 0.355E-06
CGA:   6    -0.593703869425E+03   -0.42670E-05   -0.42675E-05  1200   0.383E-05-0.451E-07
CGA:   7    -0.593703870847E+03   -0.14221E-05   -0.14282E-05  1200   0.129E-05-0.111E-06
CGA:   8    -0.593703871284E+03   -0.43762E-06   -0.43588E-06  1200   0.319E-06 0.489E-07
  49 F= -.59370387E+03 E0= -.59370387E+03  d E =-.484255E-03
       N       E                     dE             d eps       ncg     rms          ort
SDA:   1    -0.593683209775E+03    0.20661E-01    0.00000E+00  1200   0.488E-01 0.000E+00
CGA:   2    -0.593700111479E+03   -0.16902E-01   -0.16902E-01  1200   0.146E-01 0.479E-06
CGA:   3    -0.593703677775E+03   -0.35663E-02   -0.35663E-02  1200   0.233E-02 0.133E-05
CGA:   4    -0.593704254924E+03   -0.57715E-03   -0.57720E-03  1200   0.449E-03 0.578E-06
CGA:   5    -0.593704379126E+03   -0.12420E-03   -0.12424E-03  1200   0.949E-04 0.981E-06
CGA:   6    -0.593704410078E+03   -0.30951E-04   -0.30953E-04  1200   0.276E-04-0.110E-06
CGA:   7    -0.593704420188E+03   -0.10111E-04   -0.10125E-04  1200   0.895E-05-0.273E-06
CGA:   8    -0.593704423405E+03   -0.32171E-05   -0.32113E-05  1200   0.236E-05 0.131E-06
  50 F= -.59370442E+03 E0= -.59370442E+03  d E =-.103638E-02
       N       E                     dE             d eps       ncg     rms          ort
SDA:   1    -0.593700063361E+03    0.43568E-02    0.00000E+00  1200   0.113E-01 0.000E+00
CGA:   2    -0.593703967742E+03   -0.39044E-02   -0.39043E-02  1200   0.342E-02 0.611E-05
CGA:   3    -0.593704805910E+03   -0.83817E-03   -0.83800E-03  1200   0.542E-03-0.222E-05
CGA:   4    -0.593704940542E+03   -0.13463E-03   -0.13467E-03  1200   0.105E-03 0.547E-06
CGA:   5    -0.593704969477E+03   -0.28935E-04   -0.28942E-04  1200   0.226E-04 0.183E-06
CGA:   6    -0.593704976937E+03   -0.74600E-05   -0.74593E-05  1200   0.674E-05 0.302E-07
CGA:   7    -0.593704979390E+03   -0.24534E-05   -0.24506E-05  1200   0.218E-05 0.545E-07
CGA:   8    -0.593704980190E+03   -0.80042E-06   -0.79835E-06  1200   0.581E-06 0.493E-07
  51 F= -.59370498E+03 E0= -.59370498E+03  d E =-.556785E-03
       N       E                     dE             d eps       ncg     rms          ort
SDA:   1    -0.593694031579E+03    0.10948E-01    0.00000E+00  1200   0.259E-01 0.000E+00
CGA:   2    -0.593702972910E+03   -0.89413E-02   -0.89412E-02  1200   0.784E-02 0.853E-05
CGA:   3    -0.593704893043E+03   -0.19201E-02   -0.19199E-02  1200   0.124E-02-0.335E-05
CGA:   4    -0.593705201660E+03   -0.30862E-03   -0.30867E-03  1200   0.241E-03 0.774E-06
CGA:   5    -0.593705268183E+03   -0.66522E-04   -0.66533E-04  1200   0.516E-04 0.274E-06
CGA:   6    -0.593705285148E+03   -0.16965E-04   -0.16964E-04  1200   0.153E-04 0.375E-07
CGA:   7    -0.593705290709E+03   -0.55618E-05   -0.55572E-05  1200   0.493E-05 0.885E-07
CGA:   8    -0.593705292529E+03   -0.18196E-05   -0.18163E-05  1200   0.133E-05 0.710E-07
  52 F= -.59370529E+03 E0= -.59370529E+03  d E =-.869124E-03
       N       E                     dE             d eps       ncg     rms          ort
SDA:   1    -0.593701810737E+03    0.34800E-02    0.00000E+00  1200   0.883E-02 0.000E+00
CGA:   2    -0.593704849808E+03   -0.30391E-02   -0.30391E-02  1200   0.273E-02 0.244E-06
CGA:   3    -0.593705528615E+03   -0.67881E-03   -0.67865E-03  1200   0.437E-03-0.225E-05
CGA:   4    -0.593705638562E+03   -0.10995E-03   -0.10997E-03  1200   0.847E-04 0.362E-06
CGA:   5    -0.593705662575E+03   -0.24012E-04   -0.24001E-04  1200   0.192E-04-0.356E-06
CGA:   6    -0.593705668979E+03   -0.64041E-05   -0.64087E-05  1200   0.596E-05-0.204E-06
CGA:   7    -0.593705671124E+03   -0.21458E-05   -0.21448E-05  1200   0.186E-05 0.183E-07
CGA:   8    -0.593705671795E+03   -0.67060E-06   -0.66918E-06  1200   0.470E-06 0.387E-07
  53 F= -.59370567E+03 E0= -.59370567E+03  d E =-.379266E-03
       N       E                     dE             d eps       ncg     rms          ort
SDA:   1    -0.593699678360E+03    0.59928E-02    0.00000E+00  1200   0.141E-01 0.000E+00
CGA:   2    -0.593704530160E+03   -0.48518E-02   -0.48518E-02  1200   0.436E-02 0.215E-06
CGA:   3    -0.593705613528E+03   -0.10834E-02   -0.10832E-02  1200   0.698E-03-0.276E-05
CGA:   4    -0.593705789149E+03   -0.17562E-03   -0.17565E-03  1200   0.136E-03 0.475E-06
CGA:   5    -0.593705827567E+03   -0.38418E-04   -0.38404E-04  1200   0.305E-04-0.444E-06
CGA:   6    -0.593705837749E+03   -0.10182E-04   -0.10187E-04  1200   0.945E-05-0.255E-06
CGA:   7    -0.593705841165E+03   -0.34161E-05   -0.34149E-05  1200   0.297E-05 0.249E-07
CGA:   8    -0.593705842235E+03   -0.10699E-05   -0.10678E-05  1200   0.752E-06 0.501E-07
  54 F= -.59370584E+03 E0= -.59370584E+03  d E =-.549706E-03
       N       E                     dE             d eps       ncg     rms          ort
SDA:   1    -0.593702789750E+03    0.30514E-02    0.00000E+00  1200   0.761E-02 0.000E+00
CGA:   2    -0.593705384731E+03   -0.25950E-02   -0.25950E-02  1200   0.248E-02-0.487E-06
CGA:   3    -0.593705995296E+03   -0.61057E-03   -0.61045E-03  1200   0.380E-03-0.152E-05
CGA:   4    -0.593706091173E+03   -0.95877E-04   -0.95900E-04  1200   0.718E-04 0.359E-06
CGA:   5    -0.593706111098E+03   -0.19925E-04   -0.19936E-04  1200   0.152E-04 0.293E-06
CGA:   6    -0.593706116087E+03   -0.49881E-05   -0.49899E-05  1200   0.439E-05-0.119E-06
CGA:   7    -0.593706117689E+03   -0.16021E-05   -0.16070E-05  1200   0.140E-05-0.806E-07
CGA:   8    -0.593706118177E+03   -0.48835E-06   -0.48698E-06  1200   0.351E-06 0.365E-07
  55 F= -.59370612E+03 E0= -.59370612E+03  d E =-.275942E-03
       N       E                     dE             d eps       ncg     rms          ort
SDA:   1    -0.593703066830E+03    0.30509E-02    0.00000E+00  1200   0.718E-02 0.000E+00
CGA:   2    -0.593705514038E+03   -0.24472E-02   -0.24472E-02  1200   0.234E-02-0.461E-06
CGA:   3    -0.593706090067E+03   -0.57603E-03   -0.57592E-03  1200   0.359E-03-0.150E-05
CGA:   4    -0.593706180563E+03   -0.90496E-04   -0.90518E-04  1200   0.678E-04 0.346E-06
CGA:   5    -0.593706199389E+03   -0.18826E-04   -0.18836E-04  1200   0.144E-04 0.280E-06
CGA:   6    -0.593706204104E+03   -0.47147E-05   -0.47167E-05  1200   0.415E-05-0.115E-06
CGA:   7    -0.593706205621E+03   -0.15177E-05   -0.15220E-05  1200   0.133E-05-0.785E-07
CGA:   8    -0.593706206083E+03   -0.46156E-06   -0.45999E-06  1200   0.331E-06 0.376E-07
  56 F= -.59370621E+03 E0= -.59370621E+03  d E =-.363848E-03
       N       E                     dE             d eps       ncg     rms          ort
SDA:   1    -0.593705023346E+03    0.11823E-02    0.00000E+00  1200   0.318E-02 0.000E+00
CGA:   2    -0.593706120022E+03   -0.10967E-02   -0.10966E-02  1200   0.976E-03 0.163E-05
CGA:   3    -0.593706362506E+03   -0.24248E-03   -0.24242E-03  1200   0.156E-03-0.871E-06
CGA:   4    -0.593706401556E+03   -0.39049E-04   -0.39065E-04  1200   0.306E-04 0.237E-06
CGA:   5    -0.593706410045E+03   -0.84889E-05   -0.85008E-05  1200   0.674E-05 0.326E-06
CGA:   6    -0.593706412335E+03   -0.22904E-05   -0.22902E-05  1200   0.205E-05 0.218E-08
CGA:   7    -0.593706413101E+03   -0.76541E-06   -0.76663E-06  1200   0.662E-06-0.199E-07
CGA:   8    -0.593706413321E+03   -0.22013E-06   -0.21960E-06  1200   0.156E-06 0.449E-07
  57 F= -.59370641E+03 E0= -.59370641E+03  d E =-.207238E-03
       N       E                     dE             d eps       ncg     rms          ort
SDA:   1    -0.593694284545E+03    0.12129E-01    0.00000E+00  1200   0.286E-01 0.000E+00
CGA:   2    -0.593704155806E+03   -0.98713E-02   -0.98712E-02  1200   0.879E-02 0.501E-05
CGA:   3    -0.593706337195E+03   -0.21814E-02   -0.21812E-02  1200   0.140E-02-0.251E-05
CGA:   4    -0.593706688773E+03   -0.35158E-03   -0.35163E-03  1200   0.277E-03 0.742E-06
CGA:   5    -0.593706765765E+03   -0.76992E-04   -0.77026E-04  1200   0.609E-04 0.989E-06
CGA:   6    -0.593706786140E+03   -0.20376E-04   -0.20376E-04  1200   0.181E-04 0.301E-07
CGA:   7    -0.593706792874E+03   -0.67331E-05   -0.67362E-05  1200   0.578E-05-0.448E-07
CGA:   8    -0.593706794911E+03   -0.20377E-05   -0.20324E-05  1200   0.146E-05 0.145E-06
  58 F= -.59370679E+03 E0= -.59370679E+03  d E =-.588828E-03
       N       E                     dE             d eps       ncg     rms          ort
SDA:   1    -0.593656436325E+03    0.50357E-01    0.00000E+00  1200   0.114E+00 0.000E+00
CGA:   2    -0.593695934017E+03   -0.39498E-01   -0.39498E-01  1200   0.352E-01 0.919E-05
CGA:   3    -0.593704656901E+03   -0.87229E-02   -0.87223E-02  1200   0.561E-02-0.390E-05
CGA:   4    -0.593706060819E+03   -0.14039E-02   -0.14041E-02  1200   0.110E-02 0.179E-05
CGA:   5    -0.593706367742E+03   -0.30692E-03   -0.30699E-03  1200   0.243E-03 0.200E-05
CGA:   6    -0.593706448615E+03   -0.80873E-04   -0.80870E-04  1200   0.717E-04 0.147E-06
CGA:   7    -0.593706475240E+03   -0.26625E-04   -0.26627E-04  1200   0.228E-04-0.258E-07
CGA:   8    -0.593706483417E+03   -0.81762E-05   -0.81634E-05  1200   0.591E-05 0.303E-06
CGA:   9    -0.593706485540E+03   -0.21229E-05   -0.21196E-05  1200   0.131E-05 0.890E-07
  59 F= -.59370649E+03 E0= -.59370649E+03  d E =-.279457E-03
       N       E                     dE             d eps       ncg     rms          ort
SDA:   1    -0.593681536576E+03    0.24947E-01    0.00000E+00  1200   0.577E-01 0.000E+00
CGA:   2    -0.593701512270E+03   -0.19976E-01   -0.19976E-01  1200   0.178E-01-0.672E-05
CGA:   3    -0.593705916867E+03   -0.44046E-02   -0.44050E-02  1200   0.285E-02 0.333E-05
CGA:   4    -0.593706632469E+03   -0.71560E-03   -0.71551E-03  1200   0.565E-03-0.112E-05
CGA:   5    -0.593706791299E+03   -0.15883E-03   -0.15878E-03  1200   0.127E-03-0.142E-05
CGA:   6    -0.593706833299E+03   -0.41999E-04   -0.41999E-04  1200   0.374E-04 0.505E-07
CGA:   7    -0.593706847141E+03   -0.13843E-04   -0.13836E-04  1200   0.118E-04 0.129E-06
CGA:   8    -0.593706851480E+03   -0.43387E-05   -0.43480E-05  1200   0.319E-05-0.194E-06
  60 F= -.59370685E+03 E0= -.59370685E+03  d E =-.645397E-03
       N       E                     dE             d eps       ncg     rms          ort
SDA:   1    -0.593703791445E+03    0.30557E-02    0.00000E+00  1200   0.768E-02 0.000E+00
CGA:   2    -0.593706411686E+03   -0.26202E-02   -0.26203E-02  1200   0.241E-02-0.346E-05
CGA:   3    -0.593707008798E+03   -0.59711E-03   -0.59708E-03  1200   0.383E-03-0.264E-06
CGA:   4    -0.593707105039E+03   -0.96241E-04   -0.96257E-04  1200   0.768E-04 0.229E-06
CGA:   5    -0.593707126397E+03   -0.21358E-04   -0.21369E-04  1200   0.167E-04 0.291E-06
CGA:   6    -0.593707132033E+03   -0.56360E-05   -0.56387E-05  1200   0.503E-05-0.144E-06
CGA:   7    -0.593707133881E+03   -0.18483E-05   -0.18505E-05  1200   0.157E-05-0.488E-07
CGA:   8    -0.593707134403E+03   -0.52218E-06   -0.52044E-06  1200   0.368E-06 0.106E-06
  61 F= -.59370713E+03 E0= -.59370713E+03  d E =-.282923E-03
       N       E                     dE             d eps       ncg     rms          ort
SDA:   1    -0.593689405067E+03    0.17729E-01    0.00000E+00  1200   0.414E-01 0.000E+00
CGA:   2    -0.593703516046E+03   -0.14111E-01   -0.14111E-01  1200   0.130E-01-0.755E-05
CGA:   3    -0.593706730601E+03   -0.32146E-02   -0.32144E-02  1200   0.205E-02-0.577E-06
CGA:   4    -0.593707247380E+03   -0.51678E-03   -0.51682E-03  1200   0.405E-03 0.605E-06
CGA:   5    -0.593707360698E+03   -0.11332E-03   -0.11334E-03  1200   0.905E-04 0.656E-06
CGA:   6    -0.593707391101E+03   -0.30403E-04   -0.30411E-04  1200   0.271E-04-0.337E-06
CGA:   7    -0.593707401117E+03   -0.10016E-04   -0.10021E-04  1200   0.854E-05-0.956E-07
CGA:   8    -0.593707404101E+03   -0.29840E-05   -0.29753E-05  1200   0.213E-05 0.260E-06
  62 F= -.59370740E+03 E0= -.59370740E+03  d E =-.552621E-03
       N       E                     dE             d eps       ncg     rms          ort
SDA:   1    -0.593701752381E+03    0.56487E-02    0.00000E+00  1200   0.137E-01 0.000E+00
CGA:   2    -0.593706398199E+03   -0.46458E-02   -0.46459E-02  1200   0.426E-02-0.420E-05
CGA:   3    -0.593707459003E+03   -0.10608E-02   -0.10608E-02  1200   0.673E-03-0.664E-06
CGA:   4    -0.593707628105E+03   -0.16910E-03   -0.16913E-03  1200   0.129E-03 0.446E-06
CGA:   5    -0.593707664285E+03   -0.36180E-04   -0.36196E-04  1200   0.279E-04 0.448E-06
CGA:   6    -0.593707673547E+03   -0.92618E-05   -0.92645E-05  1200   0.819E-05-0.131E-06
CGA:   7    -0.593707676581E+03   -0.30336E-05   -0.30389E-05  1200   0.263E-05-0.952E-07
CGA:   8    -0.593707677496E+03   -0.91570E-06   -0.91232E-06  1200   0.648E-06 0.858E-07
  63 F= -.59370768E+03 E0= -.59370768E+03  d E =-.273395E-03
       N       E                     dE             d eps       ncg     rms          ort
SDA:   1    -0.593703746387E+03    0.39302E-02    0.00000E+00  1200   0.928E-02 0.000E+00
CGA:   2    -0.593706883898E+03   -0.31375E-02   -0.31376E-02  1200   0.288E-02-0.327E-05
CGA:   3    -0.593707600042E+03   -0.71614E-03   -0.71610E-03  1200   0.455E-03-0.567E-06
CGA:   4    -0.593707714258E+03   -0.11422E-03   -0.11424E-03  1200   0.877E-04 0.359E-06
CGA:   5    -0.593707738744E+03   -0.24486E-04   -0.24499E-04  1200   0.188E-04 0.372E-06
CGA:   6    -0.593707745007E+03   -0.62634E-05   -0.62656E-05  1200   0.554E-05-0.108E-06
CGA:   7    -0.593707747059E+03   -0.20521E-05   -0.20565E-05  1200   0.178E-05-0.770E-07
CGA:   8    -0.593707747672E+03   -0.61311E-06   -0.61085E-06  1200   0.433E-06 0.697E-07
  64 F= -.59370775E+03 E0= -.59370775E+03  d E =-.343571E-03
       N       E                     dE             d eps       ncg     rms          ort
SDA:   1    -0.593705527425E+03    0.22196E-02    0.00000E+00  1200   0.572E-02 0.000E+00
CGA:   2    -0.593707459905E+03   -0.19325E-02   -0.19325E-02  1200   0.172E-02 0.832E-06
CGA:   3    -0.593707889968E+03   -0.43006E-03   -0.43001E-03  1200   0.277E-03-0.745E-06
CGA:   4    -0.593707959258E+03   -0.69290E-04   -0.69310E-04  1200   0.557E-04 0.298E-06
CGA:   5    -0.593707974766E+03   -0.15507E-04   -0.15521E-04  1200   0.124E-04 0.380E-06
CGA:   6    -0.593707978959E+03   -0.41929E-05   -0.41931E-05  1200   0.376E-05-0.119E-07
CGA:   7    -0.593707980369E+03   -0.14107E-05   -0.14117E-05  1200   0.121E-05-0.188E-07
CGA:   8    -0.593707980783E+03   -0.41411E-06   -0.41226E-06  1200   0.288E-06 0.602E-07
  65 F= -.59370798E+03 E0= -.59370798E+03  d E =-.233111E-03
       N       E                     dE             d eps       ncg     rms          ort
SDA:   1    -0.593686465325E+03    0.21515E-01    0.00000E+00  1200   0.515E-01 0.000E+00
CGA:   2    -0.593703865491E+03   -0.17400E-01   -0.17400E-01  1200   0.155E-01 0.213E-06
CGA:   3    -0.593707736902E+03   -0.38714E-02   -0.38713E-02  1200   0.250E-02-0.175E-05
CGA:   4    -0.593708360585E+03   -0.62368E-03   -0.62375E-03  1200   0.502E-03 0.966E-06
CGA:   5    -0.593708500733E+03   -0.14015E-03   -0.14019E-03  1200   0.111E-03 0.115E-05
CGA:   6    -0.593708537989E+03   -0.37256E-04   -0.37255E-04  1200   0.332E-04 0.264E-08
CGA:   7    -0.593708550421E+03   -0.12432E-04   -0.12434E-04  1200   0.106E-04-0.288E-07
CGA:   8    -0.593708554197E+03   -0.37757E-05   -0.37679E-05  1200   0.267E-05 0.192E-06
  66 F= -.59370855E+03 E0= -.59370855E+03  d E =-.806525E-03
       N       E                     dE             d eps       ncg     rms          ort
SDA:   1    -0.593620705320E+03    0.87845E-01    0.00000E+00  1200   0.206E+00 0.000E+00
CGA:   2    -0.593690372245E+03   -0.69667E-01   -0.69668E-01  1200   0.621E-01-0.168E-04
CGA:   3    -0.593705875541E+03   -0.15503E-01   -0.15503E-01  1200   0.998E-02 0.985E-06
CGA:   4    -0.593708369896E+03   -0.24944E-02   -0.24946E-02  1200   0.200E-02 0.247E-05
CGA:   5    -0.593708928211E+03   -0.55831E-03   -0.55839E-03  1200   0.442E-03 0.233E-05
CGA:   6    -0.593709075847E+03   -0.14764E-03   -0.14763E-03  1200   0.131E-03 0.149E-06
CGA:   7    -0.593709124985E+03   -0.49138E-04   -0.49136E-04  1200   0.420E-04 0.452E-07
CGA:   8    -0.593709140082E+03   -0.15097E-04   -0.15080E-04  1200   0.108E-04 0.404E-06
CGA:   9    -0.593709143927E+03   -0.38447E-05   -0.38418E-05  1200   0.243E-05 0.800E-07
  67 F= -.59370914E+03 E0= -.59370914E+03  d E =-.139626E-02
       N       E                     dE             d eps       ncg     rms          ort
SDA:   1    -0.593702472062E+03    0.66680E-02    0.00000E+00  1200   0.167E-01 0.000E+00
CGA:   2    -0.593708049580E+03   -0.55775E-02   -0.55776E-02  1200   0.506E-02-0.160E-05
CGA:   3    -0.593709312715E+03   -0.12631E-02   -0.12630E-02  1200   0.812E-03-0.128E-05
CGA:   4    -0.593709515447E+03   -0.20273E-03   -0.20275E-03  1200   0.163E-03 0.303E-06
CGA:   5    -0.593709560509E+03   -0.45062E-04   -0.45078E-04  1200   0.354E-04 0.401E-06
CGA:   6    -0.593709572427E+03   -0.11918E-04   -0.11921E-04  1200   0.106E-04-0.122E-06
CGA:   7    -0.593709576380E+03   -0.39526E-05   -0.39554E-05  1200   0.343E-05-0.475E-07
CGA:   8    -0.593709577584E+03   -0.12044E-05   -0.12008E-05  1200   0.859E-06 0.102E-06
  68 F= -.59370958E+03 E0= -.59370958E+03  d E =-.433657E-03
       N       E                     dE             d eps       ncg     rms          ort
SDA:   1    -0.593683087602E+03    0.26489E-01    0.00000E+00  1200   0.631E-01 0.000E+00
CGA:   2    -0.593704134535E+03   -0.21047E-01   -0.21047E-01  1200   0.191E-01-0.794E-05
CGA:   3    -0.593708912512E+03   -0.47780E-02   -0.47779E-02  1200   0.306E-02-0.181E-05
CGA:   4    -0.593709679499E+03   -0.76699E-03   -0.76704E-03  1200   0.607E-03 0.651E-06
CGA:   5    -0.593709848576E+03   -0.16908E-03   -0.16910E-03  1200   0.132E-03 0.760E-06
CGA:   6    -0.593709892755E+03   -0.44179E-04   -0.44184E-04  1200   0.391E-04-0.216E-06
CGA:   7    -0.593709907276E+03   -0.14520E-04   -0.14525E-04  1200   0.126E-04-0.695E-07
CGA:   8    -0.593709911765E+03   -0.44890E-05   -0.44812E-05  1200   0.321E-05 0.201E-06
  69 F= -.59370991E+03 E0= -.59370991E+03  d E =-.767838E-03
       N       E                     dE             d eps       ncg     rms          ort
SDA:   1    -0.593696772024E+03    0.13135E-01    0.00000E+00  1200   0.320E-01 0.000E+00
CGA:   2    -0.593707467112E+03   -0.10695E-01   -0.10695E-01  1200   0.958E-02-0.201E-05
CGA:   3    -0.593709845898E+03   -0.23788E-02   -0.23786E-02  1200   0.153E-02-0.312E-05
CGA:   4    -0.593710228670E+03   -0.38277E-03   -0.38281E-03  1200   0.300E-03 0.591E-06
CGA:   5    -0.593710312353E+03   -0.83683E-04   -0.83691E-04  1200   0.655E-04 0.223E-06
CGA:   6    -0.593710334079E+03   -0.21725E-04   -0.21728E-04  1200   0.192E-04-0.164E-06
CGA:   7    -0.593710341202E+03   -0.71234E-05   -0.71256E-05  1200   0.616E-05-0.393E-07
CGA:   8    -0.593710343407E+03   -0.22050E-05   -0.22006E-05  1200   0.158E-05 0.104E-06
  70 F= -.59371034E+03 E0= -.59371034E+03  d E =-.431642E-03
       N       E                     dE             d eps       ncg     rms          ort
SDA:   1    -0.593588729186E+03    0.12161E+00    0.00000E+00  1200   0.288E+00 0.000E+00
CGA:   2    -0.593685052106E+03   -0.96323E-01   -0.96325E-01  1200   0.864E-01-0.692E-04
CGA:   3    -0.593706492224E+03   -0.21440E-01   -0.21441E-01  1200   0.137E-01 0.207E-05
CGA:   4    -0.593709935706E+03   -0.34435E-02   -0.34437E-02  1200   0.270E-02 0.246E-05
CGA:   5    -0.593710685906E+03   -0.75020E-03   -0.75023E-03  1200   0.580E-03 0.729E-06
CGA:   6    -0.593710876644E+03   -0.19074E-03   -0.19074E-03  1200   0.167E-03-0.280E-06
CGA:   7    -0.593710938629E+03   -0.61985E-04   -0.61983E-04  1200   0.535E-04 0.344E-07
CGA:   8    -0.593710958056E+03   -0.19426E-04   -0.19410E-04  1200   0.141E-04 0.345E-06
CGA:   9    -0.593710963128E+03   -0.50726E-05   -0.50680E-05  1200   0.320E-05 0.111E-06
CGA:  10    -0.593710964366E+03   -0.12379E-05   -0.12459E-05  1200   0.834E-06-0.124E-06
  71 F= -.59371096E+03 E0= -.59371096E+03  d E =-.105260E-02
       N       E                     dE             d eps       ncg     rms          ort
SDA:   1    -0.593693964195E+03    0.16999E-01    0.00000E+00  1200   0.407E-01 0.000E+00
CGA:   2    -0.593707650117E+03   -0.13686E-01   -0.13686E-01  1200   0.124E-01 0.702E-05
CGA:   3    -0.593710760425E+03   -0.31103E-02   -0.31100E-02  1200   0.199E-02-0.371E-05
CGA:   4    -0.593711255062E+03   -0.49464E-03   -0.49472E-03  1200   0.387E-03 0.966E-06
CGA:   5    -0.593711362789E+03   -0.10773E-03   -0.10776E-03  1200   0.817E-04 0.731E-06
CGA:   6    -0.593711389544E+03   -0.26755E-04   -0.26755E-04  1200   0.234E-04 0.765E-07
CGA:   7    -0.593711398268E+03   -0.87236E-05   -0.87218E-05  1200   0.749E-05 0.349E-07
CGA:   8    -0.593711400998E+03   -0.27307E-05   -0.27273E-05  1200   0.198E-05 0.758E-07
  72 F= -.59371140E+03 E0= -.59371140E+03  d E =-.436632E-03
       N       E                     dE             d eps       ncg     rms          ort
SDA:   1    -0.593711042223E+03    0.35604E-03    0.00000E+00  1200   0.857E-03 0.000E+00
CGA:   2    -0.593711329766E+03   -0.28754E-03   -0.28753E-03  1200   0.260E-03 0.101E-05
CGA:   3    -0.593711395405E+03   -0.65639E-04   -0.65594E-04  1200   0.414E-04-0.603E-06
CGA:   4    -0.593711405780E+03   -0.10375E-04   -0.10385E-04  1200   0.782E-05 0.132E-06
CGA:   5    -0.593711407970E+03   -0.21894E-05   -0.21933E-05  1200   0.173E-05 0.100E-06
CGA:   6    -0.593711408553E+03   -0.58354E-06   -0.58394E-06  1200   0.521E-06 0.350E-08
CGA:   7    -0.593711408749E+03   -0.19546E-06   -0.19527E-06  1200   0.170E-06-0.235E-09
CGA:   8    -0.593711408808E+03   -0.59428E-07   -0.59155E-07  1200   0.419E-07 0.915E-08
  73 F= -.59371141E+03 E0= -.59371141E+03  d E =-.444442E-03
       N       E                     dE             d eps       ncg     rms          ort
SDA:   1    -0.593703519297E+03    0.78895E-02    0.00000E+00  1200   0.194E-01 0.000E+00
CGA:   2    -0.593709987879E+03   -0.64686E-02   -0.64686E-02  1200   0.595E-02 0.743E-06
CGA:   3    -0.593711489261E+03   -0.15014E-02   -0.15013E-02  1200   0.937E-03-0.281E-06
CGA:   4    -0.593711724952E+03   -0.23569E-03   -0.23572E-03  1200   0.188E-03 0.354E-06
CGA:   5    -0.593711777104E+03   -0.52152E-04   -0.52183E-04  1200   0.405E-04 0.834E-06
CGA:   6    -0.593711790680E+03   -0.13576E-04   -0.13576E-04  1200   0.121E-04-0.209E-07
CGA:   7    -0.593711795186E+03   -0.45060E-05   -0.45126E-05  1200   0.392E-05-0.110E-06
CGA:   8    -0.593711796550E+03   -0.13645E-05   -0.13612E-05  1200   0.971E-06 0.989E-07
  74 F= -.59371180E+03 E0= -.59371180E+03  d E =-.387742E-03
       N       E                     dE             d eps       ncg     rms          ort
SDA:   1    -0.593676999552E+03    0.34796E-01    0.00000E+00  1200   0.824E-01 0.000E+00
CGA:   2    -0.593704443128E+03   -0.27444E-01   -0.27444E-01  1200   0.252E-01 0.676E-07
CGA:   3    -0.593710812656E+03   -0.63695E-02   -0.63695E-02  1200   0.397E-02 0.373E-06
CGA:   4    -0.593711811178E+03   -0.99852E-03   -0.99860E-03  1200   0.793E-03 0.879E-06
CGA:   5    -0.593712031727E+03   -0.22055E-03   -0.22061E-03  1200   0.171E-03 0.172E-05
CGA:   6    -0.593712088831E+03   -0.57104E-04   -0.57104E-04  1200   0.507E-04 0.207E-08
CGA:   7    -0.593712107662E+03   -0.18831E-04   -0.18842E-04  1200   0.163E-04-0.186E-06
CGA:   8    -0.593712113468E+03   -0.58063E-05   -0.57976E-05  1200   0.416E-05 0.215E-06
CGA:   9    -0.593712114955E+03   -0.14866E-05   -0.14838E-05  1200   0.921E-06 0.710E-07
  75 F= -.59371211E+03 E0= -.59371211E+03  d E =-.706147E-03
       N       E                     dE             d eps       ncg     rms          ort
SDA:   1    -0.593709213670E+03    0.28998E-02    0.00000E+00  1200   0.748E-02 0.000E+00
CGA:   2    -0.593711736864E+03   -0.25232E-02   -0.25232E-02  1200   0.224E-02-0.199E-05
CGA:   3    -0.593712295159E+03   -0.55830E-03   -0.55824E-03  1200   0.351E-03-0.628E-06
CGA:   4    -0.593712383361E+03   -0.88202E-04   -0.88219E-04  1200   0.701E-04 0.238E-06
CGA:   5    -0.593712402640E+03   -0.19279E-04   -0.19288E-04  1200   0.152E-04 0.222E-06
CGA:   6    -0.593712407784E+03   -0.51436E-05   -0.51463E-05  1200   0.456E-05-0.121E-06
CGA:   7    -0.593712409481E+03   -0.16969E-05   -0.16998E-05  1200   0.148E-05-0.485E-07
CGA:   8    -0.593712409985E+03   -0.50387E-06   -0.50252E-06  1200   0.360E-06 0.676E-07
  76 F= -.59371241E+03 E0= -.59371241E+03  d E =-.295029E-03
       N       E                     dE             d eps       ncg     rms          ort
SDA:   1    -0.593684250597E+03    0.28159E-01    0.00000E+00  1200   0.674E-01 0.000E+00
CGA:   2    -0.593706973298E+03   -0.22723E-01   -0.22723E-01  1200   0.202E-01-0.102E-04
CGA:   3    -0.593712009284E+03   -0.50360E-02   -0.50359E-02  1200   0.315E-02-0.102E-05
CGA:   4    -0.593712804330E+03   -0.79505E-03   -0.79511E-03  1200   0.623E-03 0.841E-06
CGA:   5    -0.593712976798E+03   -0.17247E-03   -0.17249E-03  1200   0.135E-03 0.655E-06
CGA:   6    -0.593713021908E+03   -0.45110E-04   -0.45115E-04  1200   0.395E-04-0.323E-06
CGA:   7    -0.593713036639E+03   -0.14731E-04   -0.14738E-04  1200   0.127E-04-0.110E-06
CGA:   8    -0.593713041174E+03   -0.45346E-05   -0.45263E-05  1200   0.327E-05 0.217E-06
  77 F= -.59371304E+03 E0= -.59371304E+03  d E =-.926219E-03
       N       E                     dE             d eps       ncg     rms          ort
SDA:   1    -0.593597929234E+03    0.11511E+00    0.00000E+00  1200   0.270E+00 0.000E+00
CGA:   2    -0.593688899597E+03   -0.90970E-01   -0.90972E-01  1200   0.808E-01-0.537E-04
CGA:   3    -0.593709059944E+03   -0.20160E-01   -0.20161E-01  1200   0.126E-01 0.510E-05
CGA:   4    -0.593712234555E+03   -0.31746E-02   -0.31748E-02  1200   0.247E-02 0.240E-05
CGA:   5    -0.593712919146E+03   -0.68459E-03   -0.68464E-03  1200   0.536E-03 0.133E-05
CGA:   6    -0.593713096828E+03   -0.17768E-03   -0.17769E-03  1200   0.155E-03-0.520E-06
CGA:   7    -0.593713154643E+03   -0.57815E-04   -0.57823E-04  1200   0.500E-04-0.133E-06
CGA:   8    -0.593713172659E+03   -0.18016E-04   -0.17996E-04  1200   0.131E-04 0.452E-06
CGA:   9    -0.593713177363E+03   -0.47038E-05   -0.47007E-05  1200   0.303E-05 0.985E-07
  78 F= -.59371318E+03 E0= -.59371318E+03  d E =-.106241E-02
       N       E                     dE             d eps       ncg     rms          ort
SDA:   1    -0.593694301212E+03    0.18871E-01    0.00000E+00  1200   0.444E-01 0.000E+00
CGA:   2    -0.593709294723E+03   -0.14994E-01   -0.14993E-01  1200   0.133E-01 0.712E-05
CGA:   3    -0.593712615006E+03   -0.33203E-02   -0.33204E-02  1200   0.209E-02 0.128E-05
CGA:   4    -0.593713144084E+03   -0.52908E-03   -0.52903E-03  1200   0.415E-03-0.620E-06
CGA:   5    -0.593713260206E+03   -0.11612E-03   -0.11610E-03  1200   0.918E-04-0.529E-06
CGA:   6    -0.593713290533E+03   -0.30327E-04   -0.30321E-04  1200   0.265E-04 0.361E-06
CGA:   7    -0.593713300452E+03   -0.99190E-05   -0.99102E-05  1200   0.849E-05 0.157E-06
CGA:   8    -0.593713303602E+03   -0.31500E-05   -0.31581E-05  1200   0.232E-05-0.163E-06
  79 F= -.59371330E+03 E0= -.59371330E+03  d E =-.118865E-02
       N       E                     dE             d eps       ncg     rms          ort
SDA:   1    -0.593704216391E+03    0.90841E-02    0.00000E+00  1200   0.226E-01 0.000E+00
CGA:   2    -0.593711701795E+03   -0.74854E-02   -0.74854E-02  1200   0.679E-02-0.243E-05
CGA:   3    -0.593713407057E+03   -0.17053E-02   -0.17051E-02  1200   0.108E-02-0.205E-05
CGA:   4    -0.593713677093E+03   -0.27004E-03   -0.27007E-03  1200   0.211E-03 0.431E-06
CGA:   5    -0.593713735085E+03   -0.57992E-04   -0.57998E-04  1200   0.434E-04 0.153E-06
CGA:   6    -0.593713749221E+03   -0.14137E-04   -0.14139E-04  1200   0.121E-04-0.183E-06
CGA:   7    -0.593713753658E+03   -0.44368E-05   -0.44385E-05  1200   0.382E-05-0.234E-07
CGA:   8    -0.593713755025E+03   -0.13669E-05   -0.13637E-05  1200   0.989E-06 0.839E-07
  80 F= -.59371376E+03 E0= -.59371376E+03  d E =-.451423E-03
       N       E                     dE             d eps       ncg     rms          ort
SDA:   1    -0.593648359752E+03    0.65394E-01    0.00000E+00  1200   0.156E+00 0.000E+00
CGA:   2    -0.593700065497E+03   -0.51706E-01   -0.51706E-01  1200   0.469E-01-0.153E-04
CGA:   3    -0.593711855681E+03   -0.11790E-01   -0.11790E-01  1200   0.743E-02-0.218E-05
CGA:   4    -0.593713719058E+03   -0.18634E-02   -0.18635E-02  1200   0.143E-02 0.160E-05
CGA:   5    -0.593714114756E+03   -0.39570E-03   -0.39571E-03  1200   0.298E-03 0.428E-06
CGA:   6    -0.593714211776E+03   -0.97020E-04   -0.97024E-04  1200   0.833E-04-0.354E-06
CGA:   7    -0.593714242370E+03   -0.30594E-04   -0.30592E-04  1200   0.265E-04 0.214E-07
CGA:   8    -0.593714252002E+03   -0.96323E-05   -0.96207E-05  1200   0.704E-05 0.249E-06
CGA:   9    -0.593714254548E+03   -0.25456E-05   -0.25426E-05  1200   0.160E-05 0.768E-07
  81 F= -.59371425E+03 E0= -.59371425E+03  d E =-.950946E-03
       N       E                     dE             d eps       ncg     rms          ort
SDA:   1    -0.593703119897E+03    0.11132E-01    0.00000E+00  1200   0.275E-01 0.000E+00
CGA:   2    -0.593712191623E+03   -0.90717E-02   -0.90717E-02  1200   0.828E-02 0.452E-06
CGA:   3    -0.593714308080E+03   -0.21165E-02   -0.21163E-02  1200   0.133E-02-0.189E-05
CGA:   4    -0.593714641496E+03   -0.33342E-03   -0.33343E-03  1200   0.266E-03 0.244E-06
CGA:   5    -0.593714715140E+03   -0.73644E-04   -0.73659E-04  1200   0.576E-04 0.367E-06
CGA:   6    -0.593714734328E+03   -0.19188E-04   -0.19189E-04  1200   0.171E-04-0.387E-07
CGA:   7    -0.593714740739E+03   -0.64108E-05   -0.64138E-05  1200   0.562E-05-0.530E-07
CGA:   8    -0.593714742746E+03   -0.20078E-05   -0.20047E-05  1200   0.146E-05 0.806E-07
  82 F= -.59371474E+03 E0= -.59371474E+03  d E =-.488198E-03
       N       E                     dE             d eps       ncg     rms          ort
SDA:   1    -0.593610821431E+03    0.10392E+00    0.00000E+00  1200   0.248E+00 0.000E+00
CGA:   2    -0.593692507025E+03   -0.81686E-01   -0.81686E-01  1200   0.747E-01-0.339E-04
CGA:   3    -0.593711592312E+03   -0.19085E-01   -0.19087E-01  1200   0.120E-01 0.347E-05
CGA:   4    -0.593714596857E+03   -0.30045E-02   -0.30046E-02  1200   0.237E-02 0.126E-05
CGA:   5    -0.593715254726E+03   -0.65787E-03   -0.65791E-03  1200   0.511E-03 0.115E-05
CGA:   6    -0.593715423928E+03   -0.16920E-03   -0.16920E-03  1200   0.150E-03 0.892E-07
CGA:   7    -0.593715479964E+03   -0.56036E-04   -0.56037E-04  1200   0.491E-04-0.156E-07
CGA:   8    -0.593715497734E+03   -0.17770E-04   -0.17757E-04  1200   0.130E-04 0.277E-06
CGA:   9    -0.593715502342E+03   -0.46080E-05   -0.46047E-05  1200   0.290E-05 0.103E-06
  83 F= -.59371550E+03 E0= -.59371550E+03  d E =-.124779E-02
       N       E                     dE             d eps       ncg     rms          ort
SDA:   1    -0.593701274387E+03    0.14223E-01    0.00000E+00  1200   0.349E-01 0.000E+00
CGA:   2    -0.593712863142E+03   -0.11589E-01   -0.11589E-01  1200   0.106E-01 0.133E-05
CGA:   3    -0.593715580446E+03   -0.27173E-02   -0.27171E-02  1200   0.172E-02-0.365E-05
CGA:   4    -0.593716011629E+03   -0.43118E-03   -0.43122E-03  1200   0.352E-03 0.533E-06
CGA:   5    -0.593716109292E+03   -0.97664E-04   -0.97678E-04  1200   0.796E-04 0.347E-06
CGA:   6    -0.593716136266E+03   -0.26973E-04   -0.26974E-04  1200   0.247E-04-0.370E-07
CGA:   7    -0.593716145516E+03   -0.92498E-05   -0.92507E-05  1200   0.813E-05-0.161E-07
CGA:   8    -0.593716148422E+03   -0.29066E-05   -0.29047E-05  1200   0.210E-05 0.485E-07
  84 F= -.59371615E+03 E0= -.59371615E+03  d E =-.646080E-03
       N       E                     dE             d eps       ncg     rms          ort
SDA:   1    -0.593682281559E+03    0.33864E-01    0.00000E+00  1200   0.805E-01 0.000E+00
CGA:   2    -0.593708948693E+03   -0.26667E-01   -0.26667E-01  1200   0.245E-01-0.197E-05
CGA:   3    -0.593715210760E+03   -0.62621E-02   -0.62618E-02  1200   0.396E-02-0.493E-05
CGA:   4    -0.593716204297E+03   -0.99354E-03   -0.99360E-03  1200   0.801E-03 0.857E-06
CGA:   5    -0.593716427551E+03   -0.22325E-03   -0.22327E-03  1200   0.181E-03 0.497E-06
CGA:   6    -0.593716488840E+03   -0.61290E-04   -0.61290E-04  1200   0.559E-04-0.326E-07
CGA:   7    -0.593716509767E+03   -0.20926E-04   -0.20927E-04  1200   0.184E-04-0.139E-07
CGA:   8    -0.593716516362E+03   -0.65957E-05   -0.65932E-05  1200   0.474E-05 0.754E-07
CGA:   9    -0.593716518032E+03   -0.16698E-05   -0.16680E-05  1200   0.105E-05 0.595E-07
  85 F= -.59371652E+03 E0= -.59371652E+03  d E =-.101569E-02
       N       E                     dE             d eps       ncg     rms          ort
SDA:   1    -0.593707897079E+03    0.86193E-02    0.00000E+00  1200   0.210E-01 0.000E+00
CGA:   2    -0.593714851429E+03   -0.69543E-02   -0.69544E-02  1200   0.637E-02-0.912E-07
CGA:   3    -0.593716472904E+03   -0.16215E-02   -0.16214E-02  1200   0.104E-02-0.157E-05
CGA:   4    -0.593716731981E+03   -0.25908E-03   -0.25911E-03  1200   0.208E-03 0.500E-06
CGA:   5    -0.593716789495E+03   -0.57514E-04   -0.57523E-04  1200   0.454E-04 0.221E-06
CGA:   6    -0.593716804667E+03   -0.15172E-04   -0.15174E-04  1200   0.137E-04-0.952E-07
[...]
CGA:   2    -0.593742612022E+03   -0.45646E-02   -0.45646E-02  1200   0.401E-02-0.124E-05
CGA:   3    -0.593743614921E+03   -0.10029E-02   -0.10029E-02  1200   0.630E-03-0.573E-06
CGA:   4    -0.593743774964E+03   -0.16004E-03   -0.16002E-03  1200   0.119E-03-0.297E-06
CGA:   5    -0.593743807378E+03   -0.32414E-04   -0.32414E-04  1200   0.231E-04 0.610E-08
CGA:   6    -0.593743814993E+03   -0.76151E-05   -0.76152E-05  1200   0.615E-05-0.175E-08
CGA:   7    -0.593743817232E+03   -0.22386E-05   -0.22371E-05  1200   0.191E-05 0.280E-07
CGA:   8    -0.593743817947E+03   -0.71585E-06   -0.71540E-06  1200   0.498E-06 0.121E-07
 383 F= -.59374382E+03 E0= -.59374382E+03  d E =-.746765E-04
       N       E                     dE             d eps       ncg     rms          ort
SDA:   1    -0.593737659136E+03    0.61581E-02    0.00000E+00  1200   0.151E-01 0.000E+00
CGA:   2    -0.593742545223E+03   -0.48861E-02   -0.48861E-02  1200   0.439E-02-0.713E-06
CGA:   3    -0.593743641948E+03   -0.10967E-02   -0.10967E-02  1200   0.696E-03-0.631E-06
CGA:   4    -0.593743818915E+03   -0.17697E-03   -0.17695E-03  1200   0.134E-03-0.182E-06
CGA:   5    -0.593743855513E+03   -0.36598E-04   -0.36601E-04  1200   0.264E-04 0.768E-07
CGA:   6    -0.593743864309E+03   -0.87956E-05   -0.87949E-05  1200   0.724E-05 0.194E-07
CGA:   7    -0.593743866945E+03   -0.26365E-05   -0.26344E-05  1200   0.226E-05 0.411E-07
CGA:   8    -0.593743867787E+03   -0.84193E-06   -0.84095E-06  1200   0.589E-06 0.147E-07
 384 F= -.59374387E+03 E0= -.59374387E+03  d E =-.498396E-04
       N       E                     dE             d eps       ncg     rms          ort
SDA:   1    -0.593742871790E+03    0.99515E-03    0.00000E+00  1200   0.243E-02 0.000E+00
CGA:   2    -0.593743659142E+03   -0.78735E-03   -0.78735E-03  1200   0.709E-03-0.251E-06
CGA:   3    -0.593743836066E+03   -0.17692E-03   -0.17691E-03  1200   0.112E-03-0.258E-06
CGA:   4    -0.593743864603E+03   -0.28537E-04   -0.28532E-04  1200   0.214E-04-0.795E-07
CGA:   5    -0.593743870463E+03   -0.58601E-05   -0.58616E-05  1200   0.426E-05 0.307E-07
CGA:   6    -0.593743871890E+03   -0.14270E-05   -0.14268E-05  1200   0.118E-05 0.430E-08
CGA:   7    -0.593743872319E+03   -0.42866E-06   -0.42800E-06  1200   0.367E-06 0.137E-07
CGA:   8    -0.593743872456E+03   -0.13773E-06   -0.13741E-06  1200   0.961E-07 0.525E-08
 385 F= -.59374387E+03 E0= -.59374387E+03  d E =-.545091E-04
       N       E                     dE             d eps       ncg     rms          ort
SDA:   1    -0.593740176422E+03    0.36959E-02    0.00000E+00  1200   0.895E-02 0.000E+00
CGA:   2    -0.593743125758E+03   -0.29493E-02   -0.29493E-02  1200   0.262E-02 0.198E-06
CGA:   3    -0.593743780137E+03   -0.65438E-03   -0.65433E-03  1200   0.410E-03-0.718E-06
CGA:   4    -0.593743884519E+03   -0.10438E-03   -0.10437E-03  1200   0.803E-04-0.151E-06
CGA:   5    -0.593743906398E+03   -0.21879E-04   -0.21882E-04  1200   0.160E-04 0.578E-07
CGA:   6    -0.593743911745E+03   -0.53473E-05   -0.53467E-05  1200   0.443E-05 0.358E-07
CGA:   7    -0.593743913377E+03   -0.16312E-05   -0.16303E-05  1200   0.141E-05 0.214E-07
CGA:   8    -0.593743913906E+03   -0.52908E-06   -0.52878E-06  1200   0.371E-06-0.522E-09
 386 F= -.59374391E+03 E0= -.59374391E+03  d E =-.414492E-04
       N       E                     dE             d eps       ncg     rms          ort
SDA:   1    -0.593741131001E+03    0.27824E-02    0.00000E+00  1200   0.669E-02 0.000E+00
CGA:   2    -0.593743336260E+03   -0.22053E-02   -0.22053E-02  1200   0.196E-02 0.205E-06
CGA:   3    -0.593743825837E+03   -0.48958E-03   -0.48953E-03  1200   0.307E-03-0.624E-06
CGA:   4    -0.593743903909E+03   -0.78072E-04   -0.78063E-04  1200   0.599E-04-0.136E-06
CGA:   5    -0.593743920229E+03   -0.16319E-04   -0.16321E-04  1200   0.120E-04 0.496E-07
CGA:   6    -0.593743924237E+03   -0.40086E-05   -0.40073E-05  1200   0.333E-05 0.326E-07
CGA:   7    -0.593743925464E+03   -0.12264E-05   -0.12255E-05  1200   0.106E-05 0.169E-07
CGA:   8    -0.593743925863E+03   -0.39885E-06   -0.39890E-06  1200   0.280E-06-0.617E-09
 387 F= -.59374393E+03 E0= -.59374393E+03  d E =-.534061E-04
       N       E                     dE             d eps       ncg     rms          ort
SDA:   1    -0.593742290330E+03    0.16351E-02    0.00000E+00  1200   0.403E-02 0.000E+00
CGA:   2    -0.593743611178E+03   -0.13208E-02   -0.13209E-02  1200   0.117E-02-0.433E-06
CGA:   3    -0.593743903145E+03   -0.29197E-03   -0.29193E-03  1200   0.183E-03-0.487E-06
CGA:   4    -0.593743949690E+03   -0.46545E-04   -0.46536E-04  1200   0.353E-04-0.134E-06
CGA:   5    -0.593743959298E+03   -0.96076E-05   -0.96076E-05  1200   0.694E-05 0.523E-08
CGA:   6    -0.593743961610E+03   -0.23128E-05   -0.23133E-05  1200   0.190E-05-0.228E-07
CGA:   7    -0.593743962301E+03   -0.69034E-06   -0.69009E-06  1200   0.595E-06 0.515E-08
CGA:   8    -0.593743962523E+03   -0.22254E-06   -0.22256E-06  1200   0.157E-06 0.402E-09
 388 F= -.59374396E+03 E0= -.59374396E+03  d E =-.366606E-04
       N       E                     dE             d eps       ncg     rms          ort
SDA:   1    -0.593728993050E+03    0.14969E-01    0.00000E+00  1200   0.362E-01 0.000E+00
CGA:   2    -0.593740879318E+03   -0.11886E-01   -0.11886E-01  1200   0.105E-01-0.101E-05
CGA:   3    -0.593743503773E+03   -0.26245E-02   -0.26243E-02  1200   0.165E-02-0.151E-05
CGA:   4    -0.593743922195E+03   -0.41842E-03   -0.41840E-03  1200   0.319E-03-0.386E-06
CGA:   5    -0.593744008938E+03   -0.86742E-04   -0.86742E-04  1200   0.623E-04 0.742E-08
CGA:   6    -0.593744029616E+03   -0.20678E-04   -0.20679E-04  1200   0.169E-04-0.454E-07
CGA:   7    -0.593744035780E+03   -0.61641E-05   -0.61626E-05  1200   0.530E-05 0.332E-07
CGA:   8    -0.593744037758E+03   -0.19784E-05   -0.19781E-05  1200   0.139E-05 0.449E-08
 389 F= -.59374404E+03 E0= -.59374404E+03  d E =-.111895E-03
       N       E                     dE             d eps       ncg     rms          ort
SDA:   1    -0.593683858550E+03    0.60177E-01    0.00000E+00  1200   0.145E+00 0.000E+00
CGA:   2    -0.593731402544E+03   -0.47544E-01   -0.47544E-01  1200   0.420E-01-0.707E-06
CGA:   3    -0.593741898768E+03   -0.10496E-01   -0.10496E-01  1200   0.659E-02-0.278E-05
CGA:   4    -0.593743572052E+03   -0.16733E-02   -0.16732E-02  1200   0.128E-02-0.740E-06
CGA:   5    -0.593743918719E+03   -0.34667E-03   -0.34667E-03  1200   0.249E-03-0.272E-07
CGA:   6    -0.593744001366E+03   -0.82648E-04   -0.82648E-04  1200   0.677E-04-0.247E-07
CGA:   7    -0.593744026032E+03   -0.24666E-04   -0.24660E-04  1200   0.212E-04 0.112E-06
CGA:   8    -0.593744033955E+03   -0.79233E-05   -0.79220E-05  1200   0.557E-05 0.191E-07
CGA:   9    -0.593744035977E+03   -0.20213E-05   -0.20211E-05  1200   0.125E-05 0.101E-07
 390 F= -.59374404E+03 E0= -.59374404E+03  d E =-.110114E-03
       N       E                     dE             d eps       ncg     rms          ort
SDA:   1    -0.593728871655E+03    0.15162E-01    0.00000E+00  1200   0.366E-01 0.000E+00
CGA:   2    -0.593740871020E+03   -0.11999E-01   -0.11999E-01  1200   0.106E-01 0.935E-06
CGA:   3    -0.593743522381E+03   -0.26514E-02   -0.26515E-02  1200   0.167E-02 0.144E-05
CGA:   4    -0.593743945616E+03   -0.42323E-03   -0.42326E-03  1200   0.322E-03 0.410E-06
CGA:   5    -0.593744033495E+03   -0.87879E-04   -0.87879E-04  1200   0.629E-04-0.742E-08
CGA:   6    -0.593744054278E+03   -0.20783E-04   -0.20781E-04  1200   0.169E-04 0.101E-06
CGA:   7    -0.593744060468E+03   -0.61904E-05   -0.61899E-05  1200   0.532E-05 0.875E-08
CGA:   8    -0.593744062442E+03   -0.19741E-05   -0.19738E-05  1200   0.138E-05 0.927E-08
 391 F= -.59374406E+03 E0= -.59374406E+03  d E =-.136579E-03
       N       E                     dE             d eps       ncg     rms          ort
SDA:   1    -0.593741622825E+03    0.24376E-02    0.00000E+00  1200   0.600E-02 0.000E+00
CGA:   2    -0.593743583073E+03   -0.19602E-02   -0.19602E-02  1200   0.174E-02 0.600E-08
CGA:   3    -0.593744016563E+03   -0.43349E-03   -0.43344E-03  1200   0.273E-03-0.655E-06
CGA:   4    -0.593744085595E+03   -0.69032E-04   -0.69026E-04  1200   0.532E-04-0.910E-07
CGA:   5    -0.593744100011E+03   -0.14416E-04   -0.14415E-04  1200   0.101E-04-0.915E-08
CGA:   6    -0.593744103358E+03   -0.33472E-05   -0.33472E-05  1200   0.270E-05-0.170E-07
CGA:   7    -0.593744104324E+03   -0.96628E-06   -0.96502E-06  1200   0.816E-06 0.236E-07
CGA:   8    -0.593744104630E+03   -0.30561E-06   -0.30513E-06  1200   0.213E-06 0.259E-08
 392 F= -.59374410E+03 E0= -.59374410E+03  d E =-.421877E-04
       N       E                     dE             d eps       ncg     rms          ort
SDA:   1    -0.593723460948E+03    0.20643E-01    0.00000E+00  1200   0.501E-01 0.000E+00
CGA:   2    -0.593739803198E+03   -0.16342E-01   -0.16342E-01  1200   0.145E-01 0.103E-05
CGA:   3    -0.593743422948E+03   -0.36198E-02   -0.36196E-02  1200   0.227E-02-0.199E-05
CGA:   4    -0.593743998335E+03   -0.57539E-03   -0.57537E-03  1200   0.438E-03-0.266E-06
CGA:   5    -0.593744117201E+03   -0.11887E-03   -0.11886E-03  1200   0.849E-04-0.393E-07
CGA:   6    -0.593744145284E+03   -0.28083E-04   -0.28083E-04  1200   0.228E-04-0.295E-07
CGA:   7    -0.593744153508E+03   -0.82244E-05   -0.82206E-05  1200   0.705E-05 0.828E-07
CGA:   8    -0.593744156135E+03   -0.26268E-05   -0.26265E-05  1200   0.184E-05 0.670E-08
 393 F= -.59374416E+03 E0= -.59374416E+03  d E =-.936931E-04
       N       E                     dE             d eps       ncg     rms          ort
SDA:   1    -0.593743193905E+03    0.95960E-03    0.00000E+00  1200   0.236E-02 0.000E+00
CGA:   2    -0.593743977368E+03   -0.78346E-03   -0.78346E-03  1200   0.691E-03 0.459E-06
CGA:   3    -0.593744148784E+03   -0.17142E-03   -0.17138E-03  1200   0.105E-03-0.527E-06
CGA:   4    -0.593744175678E+03   -0.26894E-04   -0.26891E-04  1200   0.199E-04-0.433E-07
CGA:   5    -0.593744181071E+03   -0.53931E-05   -0.53922E-05  1200   0.395E-05-0.171E-07
CGA:   6    -0.593744182364E+03   -0.12930E-05   -0.12928E-05  1200   0.105E-05 0.395E-08
CGA:   7    -0.593744182738E+03   -0.37465E-06   -0.37361E-06  1200   0.322E-06 0.191E-07
CGA:   8    -0.593744182863E+03   -0.12490E-06   -0.12526E-06  1200   0.897E-07-0.246E-08
 394 F= -.59374418E+03 E0= -.59374418E+03  d E =-.267281E-04
       N       E                     dE             d eps       ncg     rms          ort
SDA:   1    -0.593740204717E+03    0.39780E-02    0.00000E+00  1200   0.955E-02 0.000E+00
CGA:   2    -0.593743375256E+03   -0.31705E-02   -0.31705E-02  1200   0.279E-02 0.828E-06
CGA:   3    -0.593744066092E+03   -0.69084E-03   -0.69076E-03  1200   0.427E-03-0.103E-05
CGA:   4    -0.593744174703E+03   -0.10861E-03   -0.10861E-03  1200   0.820E-04-0.651E-07
CGA:   5    -0.593744196805E+03   -0.22103E-04   -0.22102E-04  1200   0.158E-04-0.339E-07
CGA:   6    -0.593744201964E+03   -0.51592E-05   -0.51593E-05  1200   0.412E-05 0.983E-08
CGA:   7    -0.593744203446E+03   -0.14819E-05   -0.14799E-05  1200   0.126E-05 0.448E-07
CGA:   8    -0.593744203927E+03   -0.48093E-06   -0.48100E-06  1200   0.341E-06-0.391E-08
 395 F= -.59374420E+03 E0= -.59374420E+03  d E =-.477920E-04
       N       E                     dE             d eps       ncg     rms          ort
SDA:   1    -0.593742889632E+03    0.13138E-02    0.00000E+00  1200   0.322E-02 0.000E+00
CGA:   2    -0.593743954518E+03   -0.10649E-02   -0.10649E-02  1200   0.943E-03-0.309E-06
CGA:   3    -0.593744189118E+03   -0.23460E-03   -0.23456E-03  1200   0.145E-03-0.589E-06
CGA:   4    -0.593744226182E+03   -0.37064E-04   -0.37059E-04  1200   0.274E-04-0.755E-07
CGA:   5    -0.593744233626E+03   -0.74444E-05   -0.74436E-05  1200   0.527E-05-0.164E-07
CGA:   6    -0.593744235363E+03   -0.17363E-05   -0.17368E-05  1200   0.140E-05-0.309E-07
CGA:   7    -0.593744235862E+03   -0.49940E-06   -0.49906E-06  1200   0.426E-06 0.840E-08
CGA:   8    -0.593744236024E+03   -0.16153E-06   -0.16234E-06  1200   0.117E-06-0.484E-08
 396 F= -.59374424E+03 E0= -.59374424E+03  d E =-.320964E-04
       N       E                     dE             d eps       ncg     rms          ort
SDA:   1    -0.593732177022E+03    0.12059E-01    0.00000E+00  1200   0.290E-01 0.000E+00
CGA:   2    -0.593741758896E+03   -0.95819E-02   -0.95819E-02  1200   0.848E-02-0.856E-06
CGA:   3    -0.593743866529E+03   -0.21076E-02   -0.21075E-02  1200   0.131E-02-0.178E-05
CGA:   4    -0.593744199725E+03   -0.33320E-03   -0.33318E-03  1200   0.248E-03-0.206E-06
CGA:   5    -0.593744266973E+03   -0.67248E-04   -0.67245E-04  1200   0.472E-04-0.570E-07
CGA:   6    -0.593744282455E+03   -0.15482E-04   -0.15483E-04  1200   0.124E-04-0.736E-07
CGA:   7    -0.593744286914E+03   -0.44594E-05   -0.44574E-05  1200   0.380E-05 0.409E-07
CGA:   8    -0.593744288339E+03   -0.14254E-05   -0.14257E-05  1200   0.102E-05-0.690E-08
 397 F= -.59374429E+03 E0= -.59374429E+03  d E =-.844121E-04
       N       E                     dE             d eps       ncg     rms          ort
SDA:   1    -0.593743013026E+03    0.12739E-02    0.00000E+00  1200   0.306E-02 0.000E+00
CGA:   2    -0.593744024462E+03   -0.10114E-02   -0.10114E-02  1200   0.896E-03-0.275E-06
CGA:   3    -0.593744247421E+03   -0.22296E-03   -0.22292E-03  1200   0.138E-03-0.589E-06
CGA:   4    -0.593744282628E+03   -0.35207E-04   -0.35202E-04  1200   0.259E-04-0.780E-07
CGA:   5    -0.593744289664E+03   -0.70355E-05   -0.70346E-05  1200   0.502E-05-0.166E-07
CGA:   6    -0.593744291320E+03   -0.16561E-05   -0.16567E-05  1200   0.134E-05-0.293E-07
CGA:   7    -0.593744291798E+03   -0.47837E-06   -0.47797E-06  1200   0.410E-06 0.867E-08
CGA:   8    -0.593744291955E+03   -0.15648E-06   -0.15643E-06  1200   0.113E-06-0.446E-08
 398 F= -.59374429E+03 E0= -.59374429E+03  d E =-.880274E-04
       N       E                     dE             d eps       ncg     rms          ort
SDA:   1    -0.593741966953E+03    0.23248E-02    0.00000E+00  1200   0.563E-02 0.000E+00
CGA:   2    -0.593743826824E+03   -0.18599E-02   -0.18599E-02  1200   0.165E-02 0.231E-06
CGA:   3    -0.593744237712E+03   -0.41089E-03   -0.41085E-03  1200   0.254E-03-0.524E-06
CGA:   4    -0.593744302394E+03   -0.64682E-04   -0.64676E-04  1200   0.491E-04-0.952E-07
CGA:   5    -0.593744315627E+03   -0.13234E-04   -0.13236E-04  1200   0.955E-05 0.643E-07
CGA:   6    -0.593744318789E+03   -0.31616E-05   -0.31613E-05  1200   0.257E-05 0.114E-07
CGA:   7    -0.593744319713E+03   -0.92423E-06   -0.92323E-06  1200   0.797E-06 0.239E-07
CGA:   8    -0.593744320012E+03   -0.29899E-06   -0.29892E-06  1200   0.212E-06 0.308E-08
 399 F= -.59374432E+03 E0= -.59374432E+03  d E =-.280575E-04
       N       E                     dE             d eps       ncg     rms          ort
SDA:   1    -0.593744171822E+03    0.14789E-03    0.00000E+00  1200   0.358E-03 0.000E+00
CGA:   2    -0.593744289812E+03   -0.11799E-03   -0.11799E-03  1200   0.105E-03 0.606E-07
CGA:   3    -0.593744316000E+03   -0.26189E-04   -0.26179E-04  1200   0.161E-04-0.135E-06
CGA:   4    -0.593744320121E+03   -0.41208E-05   -0.41189E-05  1200   0.308E-05-0.283E-07
CGA:   5    -0.593744320949E+03   -0.82811E-06   -0.82852E-06  1200   0.607E-06 0.165E-07
CGA:   6    -0.593744321152E+03   -0.20280E-06   -0.20266E-06  1200   0.166E-06 0.276E-08
CGA:   7    -0.593744321211E+03   -0.58872E-07   -0.58737E-07  1200   0.506E-07 0.555E-08
CGA:   8    -0.593744321231E+03   -0.19969E-07   -0.20624E-07  1200   0.153E-07-0.194E-08
 400 F= -.59374432E+03 E0= -.59374432E+03  d E =-.292764E-04
       N       E                     dE             d eps       ncg     rms          ort
SDA:   1    -0.593743586449E+03    0.73476E-03    0.00000E+00  1200   0.181E-02 0.000E+00
CGA:   2    -0.593744179537E+03   -0.59309E-03   -0.59309E-03  1200   0.539E-03-0.424E-08
CGA:   3    -0.593744314357E+03   -0.13482E-03   -0.13481E-03  1200   0.834E-04-0.199E-06
CGA:   4    -0.593744335560E+03   -0.21203E-04   -0.21205E-04  1200   0.161E-04 0.235E-07
CGA:   5    -0.593744339897E+03   -0.43374E-05   -0.43400E-05  1200   0.311E-05 0.659E-07
CGA:   6    -0.593744340931E+03   -0.10335E-05   -0.10332E-05  1200   0.856E-06 0.975E-08
CGA:   7    -0.593744341239E+03   -0.30790E-06   -0.30677E-06  1200   0.265E-06 0.222E-07
CGA:   8    -0.593744341340E+03   -0.10148E-06   -0.10062E-06  1200   0.718E-07 0.820E-08
 401 F= -.59374434E+03 E0= -.59374434E+03  d E =-.201093E-04
       N       E                     dE             d eps       ncg     rms          ort
SDA:   1    -0.593742669612E+03    0.16716E-02    0.00000E+00  1200   0.403E-02 0.000E+00
CGA:   2    -0.593743991828E+03   -0.13222E-02   -0.13222E-02  1200   0.120E-02-0.226E-07
CGA:   3    -0.593744292365E+03   -0.30054E-03   -0.30052E-03  1200   0.186E-03-0.298E-06
CGA:   4    -0.593744339656E+03   -0.47291E-04   -0.47293E-04  1200   0.358E-04 0.333E-07
CGA:   5    -0.593744349337E+03   -0.96808E-05   -0.96852E-05  1200   0.697E-05 0.971E-07
CGA:   6    -0.593744351647E+03   -0.23103E-05   -0.23100E-05  1200   0.192E-05 0.153E-07
CGA:   7    -0.593744352341E+03   -0.69398E-06   -0.69237E-06  1200   0.603E-06 0.331E-07
CGA:   8    -0.593744352570E+03   -0.22872E-06   -0.22771E-06  1200   0.163E-06 0.121E-07
 402 F= -.59374435E+03 E0= -.59374435E+03  d E =-.313388E-04
       N       E                     dE             d eps       ncg     rms          ort
SDA:   1    -0.593743924641E+03    0.42770E-03    0.00000E+00  1200   0.105E-02 0.000E+00
CGA:   2    -0.593744275355E+03   -0.35071E-03   -0.35072E-03  1200   0.313E-03-0.596E-06
CGA:   3    -0.593744353345E+03   -0.77990E-04   -0.77983E-04  1200   0.483E-04-0.866E-07
CGA:   4    -0.593744365650E+03   -0.12305E-04   -0.12304E-04  1200   0.911E-05-0.183E-07
CGA:   5    -0.593744368113E+03   -0.24636E-05   -0.24646E-05  1200   0.177E-05 0.279E-07
CGA:   6    -0.593744368707E+03   -0.59358E-06   -0.59378E-06  1200   0.494E-06-0.208E-07
CGA:   7    -0.593744368882E+03   -0.17494E-06   -0.17396E-06  1200   0.152E-06 0.878E-08
CGA:   8    -0.593744368938E+03   -0.56482E-07   -0.56349E-07  1200   0.406E-07 0.530E-08
 403 F= -.59374437E+03 E0= -.59374437E+03  d E =-.163686E-04
       N       E                     dE             d eps       ncg     rms          ort
SDA:   1    -0.593741135326E+03    0.32336E-02    0.00000E+00  1200   0.770E-02 0.000E+00
CGA:   2    -0.593743702757E+03   -0.25674E-02   -0.25675E-02  1200   0.229E-02-0.153E-05
CGA:   3    -0.593744273135E+03   -0.57038E-03   -0.57036E-03  1200   0.354E-03-0.240E-06
CGA:   4    -0.593744363153E+03   -0.90018E-04   -0.90015E-04  1200   0.672E-04-0.395E-07
CGA:   5    -0.593744381325E+03   -0.18172E-04   -0.18175E-04  1200   0.130E-04 0.736E-07
CGA:   6    -0.593744385611E+03   -0.42866E-05   -0.42875E-05  1200   0.353E-05-0.514E-07
CGA:   7    -0.593744386883E+03   -0.12713E-05   -0.12699E-05  1200   0.111E-05 0.262E-07
CGA:   8    -0.593744387298E+03   -0.41476E-06   -0.41388E-06  1200   0.300E-06 0.140E-07
 404 F= -.59374439E+03 E0= -.59374439E+03  d E =-.347277E-04
       N       E                     dE             d eps       ncg     rms          ort
SDA:   1    -0.593744205021E+03    0.18186E-03    0.00000E+00  1200   0.456E-03 0.000E+00
CGA:   2    -0.593744356602E+03   -0.15158E-03   -0.15158E-03  1200   0.138E-03 0.704E-07
CGA:   3    -0.593744390977E+03   -0.34376E-04   -0.34360E-04  1200   0.211E-04-0.217E-06
CGA:   4    -0.593744396392E+03   -0.54148E-05   -0.54135E-05  1200   0.408E-05-0.983E-08
CGA:   5    -0.593744397513E+03   -0.11209E-05   -0.11207E-05  1200   0.853E-06-0.310E-08
CGA:   6    -0.593744397803E+03   -0.28969E-06   -0.28970E-06  1200   0.249E-06-0.616E-08
CGA:   7    -0.593744397889E+03   -0.86434E-07   -0.85796E-07  1200   0.750E-07 0.121E-07
CGA:   8    -0.593744397919E+03   -0.29277E-07   -0.28753E-07  1200   0.207E-07 0.317E-08
 405 F= -.59374440E+03 E0= -.59374440E+03  d E =-.106210E-04
