
Lmod is automatically replacing "cce/11.0.4" with "gcc/10.2.0".


Lmod is automatically replacing "PrgEnv-cray/8.0.0" with "PrgEnv-gnu/8.0.0".


Lmod is automatically replacing "craype-network-ofi" with "craype-network-ucx".


Inactive Modules:
  1) cray-mpich


Lmod is automatically replacing "craype-network-ucx" with "craype-network-ofi".


Inactive Modules:
  1) cray-mpich-ucx/8.1.9

Activating Modules:
  1) cray-mpich/8.1.4

 ----------------------------------------------------
    OOO  PPPP  EEEEE N   N M   M PPPP
   O   O P   P E     NN  N MM MM P   P
   O   O PPPP  EEEEE N N N M M M PPPP   -- VERSION
   O   O P     E     N  NN M   M P
    OOO  P     EEEEE N   N M   M P
 ----------------------------------------------------
 running   64 mpi-ranks, with    1 threads/rank
 distrk:  each k-point on   32 cores,    2 groups
 distr:  one band on    4 cores,    8 groups
 vasp.6.3.1 04May22 (build May 25 2022 13:42:54) complex                         
 POSCAR found type information on POSCAR C H I N Sn
 POSCAR found :  5 types and      48 ions
 scaLAPACK will be used
 -----------------------------------------------------------------------------
|                                                                             |
|               ----> ADVICE to this user running VASP <----                  |
|                                                                             |
|     You have a (more or less) 'large supercell' and for larger cells it     |
|     might be more efficient to use real-space projection operators.         |
|     Therefore, try LREAL= Auto in the INCAR file.                           |
|     Mind: For very accurate calculation, you might also keep the            |
|     reciprocal projection scheme (i.e. LREAL=.FALSE.).                      |
|                                                                             |
 -----------------------------------------------------------------------------

 WARNING: PSMAXN for non-local potential too small
 LDA part: xc-table for Pade appr. of Perdew
 POSCAR, INCAR and KPOINTS ok, starting setup
 FFT: planning ... GRIDC
 FFT: planning ... GRID_SOFT
 FFT: planning ... GRID
 WAVECAR not read
 entering main loop
       N       E                     dE             d eps       ncg     rms          ort
DAV:   1     0.833177506922E+03    0.83318E+03   -0.89315E+04  1200   0.161E+03
DAV:   2    -0.463846594868E+03   -0.12970E+04   -0.12413E+04  1200   0.253E+02
DAV:   3    -0.638817409873E+03   -0.17497E+03   -0.17359E+03  1200   0.104E+02
DAV:   4    -0.644005870467E+03   -0.51885E+01   -0.51577E+01  1200   0.202E+01
DAV:   5    -0.644164662719E+03   -0.15879E+00   -0.15870E+00  1200   0.328E+00
 gam= 0.000 g(H,U,f)=  0.562E+02 0.714E+01 0.342E-15 ort(H,U,f) = 0.000E+00 0.000E+00 0.000E+00
SDA:   6    -0.581151242628E+03    0.63013E+02   -0.15870E+00  1200   0.634E+02 0.000E+00
 gam= 0.000 trial= 0.400  step= 0.331 mean= 0.400
 gam= 0.074 g(H,U,f)=  0.382E+01 0.840E+00 0.344E-15 ort(H,U,f) =-0.242E+01 0.243E+01 0.292E-15
CGA:   7    -0.591670919108E+03   -0.10520E+02   -0.10490E+02  1200   0.466E+01 0.871E-02
 gam= 0.074 trial= 0.397  step= 0.587 mean= 0.397
 gam= 0.314 g(H,U,f)=  0.120E+01 0.260E+00 0.930E-16 ort(H,U,f) =-0.485E+00 0.509E+00 0.128E-15
CGA:   8    -0.593042439934E+03   -0.13715E+01   -0.13678E+01  1200   0.146E+01 0.237E-01
 gam= 0.314 trial= 0.406  step= 0.592 mean= 0.406
 gam= 0.291 g(H,U,f)=  0.349E+00 0.754E-01 0.364E-16 ort(H,U,f) =-0.219E+00 0.220E+00 0.772E-16
CGA:   9    -0.593477104461E+03   -0.43466E+00   -0.43464E+00  1200   0.425E+00 0.115E-02
 gam= 0.291 trial= 0.415  step= 0.606 mean= 0.415
 gam= 0.277 g(H,U,f)=  0.101E+00 0.167E-01 0.298E-14 ort(H,U,f) =-0.637E-01 0.635E-01 0.644E-14
CGA:  10    -0.593605986520E+03   -0.12888E+00   -0.12890E+00  1200   0.118E+00-0.241E-03
 gam= 0.277 trial= 0.425  step= 0.702 mean= 0.425
 gam= 0.299 g(H,U,f)=  0.317E-01 0.349E-02 0.114E-16 ort(H,U,f) =-0.136E-01 0.135E-01 0.164E-16
CGA:  11    -0.593647337380E+03   -0.41351E-01   -0.41369E-01  1200   0.352E-01-0.169E-03
 gam= 0.299 trial= 0.439  step= 0.643 mean= 0.439
 gam= 0.223 g(H,U,f)=  0.731E-02 0.544E-03 0.199E-14 ort(H,U,f) =-0.263E-02 0.268E-02 0.755E-14
CGA:  12    -0.593658644317E+03   -0.11307E-01   -0.11304E-01  1200   0.785E-02 0.436E-04
 gam= 0.223 trial= 0.449  step= 0.712 mean= 0.449
 gam= 0.249 g(H,U,f)=  0.187E-02 0.868E-04 0.236E-18 ort(H,U,f) =-0.392E-03 0.349E-03 0.835E-18
CGA:  13    -0.593661437689E+03   -0.27934E-02   -0.27992E-02  1200   0.196E-02-0.427E-04
 gam= 0.249 trial= 0.462  step= 0.723 mean= 0.462
 gam= 0.215 g(H,U,f)=  0.390E-03 0.313E-04 0.132E-19 ort(H,U,f) =-0.704E-04 0.697E-04 0.619E-19
CGA:  14    -0.593662141722E+03   -0.70403E-03   -0.70415E-03  1200   0.421E-03-0.687E-06
 gam= 0.215 trial= 0.475  step= 0.724 mean= 0.475
 gam= 0.211 g(H,U,f)=  0.843E-04 0.472E-05 0.682E-16 ort(H,U,f) = 0.734E-05 0.114E-04 0.343E-15
CGA:  15    -0.593662296489E+03   -0.15477E-03   -0.15243E-03  1200   0.890E-04 0.187E-04
 gam= 0.211 trial= 0.488  step= 0.819 mean= 0.488
 gam= 0.252 g(H,U,f)=  0.211E-04 0.133E-05 0.769E-19 ort(H,U,f) = 0.430E-06 0.291E-05 0.508E-18
CGA:  16    -0.593662335098E+03   -0.38609E-04   -0.38055E-04  1200   0.225E-04 0.334E-05
 gam= 0.252 trial= 0.504  step= 0.929 mean= 0.504
 gam= 0.284 g(H,U,f)=  0.615E-05 0.226E-06 0.508E-22 ort(H,U,f) =-0.207E-05 0.426E-06-0.191E-20
CGA:  17    -0.593662345578E+03   -0.10479E-04   -0.10828E-04  1200   0.637E-05-0.165E-05
 gam= 0.284 trial= 0.525  step= 0.754 mean= 0.525
 gam= 0.236 g(H,U,f)=  0.139E-05 0.116E-06 0.189E-21 ort(H,U,f) = 0.567E-06 0.769E-07-0.406E-21
CGA:  18    -0.593662347879E+03   -0.23018E-05   -0.22281E-05  1200   0.151E-05 0.644E-06
 gam= 0.236 trial= 0.537  step= 0.649 mean= 0.537
 final diagonalization
   1 F= -.59366235E+03 E0= -.59366235E+03  d E =-.593662E+03
 curvature:   0.00 expect dE= 0.000E+00 dE for cont linesearch  0.000E+00
 trial: gam= 0.00000 g(F)=  0.323E-02 g(S)=  0.000E+00 ort = 0.000E+00 (trialstep = 0.100E+01)
 search vector abs. value=  0.323E-02
 bond charge predicted
 wavefunctions rotated
       N       E                     dE             d eps       ncg     rms          ort
 gam= 0.000 g(H,U,f)=  0.917E-01 0.777E-03 0.940E-23 ort(H,U,f) = 0.000E+00 0.000E+00 0.000E+00
SDA:   1    -0.593617798339E+03    0.44547E-01    0.00000E+00  1200   0.925E-01 0.000E+00
 gam= 0.000 trial= 0.543  step= 0.692 mean= 0.543
 gam= 0.357 g(H,U,f)=  0.324E-01 0.633E-03 0.114E-22 ort(H,U,f) = 0.588E-03-0.589E-03-0.937E-23
CGA:   2    -0.593649810720E+03   -0.32012E-01   -0.32012E-01  1200   0.331E-01-0.852E-06
 gam= 0.357 trial= 0.550  step= 0.488 mean= 0.550
 gam= 0.145 g(H,U,f)=  0.460E-02 0.197E-03 0.550E-24 ort(H,U,f) = 0.159E-04-0.653E-05-0.194E-23
CGA:   3    -0.593657876127E+03   -0.80654E-02   -0.80656E-02  1200   0.480E-02 0.933E-05
 gam= 0.145 trial= 0.547  step= 0.511 mean= 0.547
 gam= 0.178 g(H,U,f)=  0.814E-03 0.390E-04 0.186E-25 ort(H,U,f) =-0.811E-04 0.808E-04-0.571E-25
CGA:   4    -0.593659102750E+03   -0.12266E-02   -0.12266E-02  1200   0.853E-03-0.270E-06
 gam= 0.178 trial= 0.545  step= 0.558 mean= 0.545
 gam= 0.219 g(H,U,f)=  0.172E-03 0.142E-04 0.355E-24 ort(H,U,f) =-0.272E-04 0.294E-04 0.429E-25
CGA:   5    -0.593659340635E+03   -0.23788E-03   -0.23787E-03  1200   0.187E-03 0.223E-05
 gam= 0.219 trial= 0.546  step= 0.629 mean= 0.546
 gam= 0.267 g(H,U,f)=  0.430E-04 0.674E-05 0.557E-25 ort(H,U,f) =-0.131E-04 0.138E-04 0.172E-24
CGA:   6    -0.593659399453E+03   -0.58818E-04   -0.58790E-04  1200   0.498E-04 0.663E-06
 gam= 0.267 trial= 0.550  step= 0.744 mean= 0.550
 gam= 0.330 g(H,U,f)=  0.154E-04 0.105E-05 0.879E-26 ort(H,U,f) =-0.346E-05 0.348E-05 0.499E-25
CGA:   7    -0.593659418031E+03   -0.18578E-04   -0.18577E-04  1200   0.164E-04 0.163E-07
 gam= 0.330 trial= 0.560  step= 0.760 mean= 0.560
 gam= 0.283 g(H,U,f)=  0.450E-05 0.148E-06 0.319E-25 ort(H,U,f) =-0.687E-06 0.797E-06 0.594E-25
CGA:   8    -0.593659424275E+03   -0.62441E-05   -0.62325E-05  1200   0.465E-05 0.110E-06
 gam= 0.283 trial= 0.570  step= 0.729 mean= 0.570
 gam= 0.226 g(H,U,f)=  0.103E-05 0.189E-07 0.859E-26 ort(H,U,f) =-0.264E-07 0.593E-07 0.303E-25
CGA:   9    -0.593659425983E+03   -0.17072E-05   -0.17046E-05  1200   0.105E-05 0.329E-07
 gam= 0.226 trial= 0.578  step= 0.732 mean= 0.578
 final diagonalization
   2 F= -.59365943E+03 E0= -.59365943E+03  d E =0.292190E-02
 trial-energy change:    0.002922  1 .order    0.002936   -0.003228    0.009100
 step:   0.2619(harm=  0.2619)  dis= 0.00083  next Energy=  -593.662771 (dE=-0.423E-03)
 bond charge predicted
 wavefunctions rotated
       N       E                     dE             d eps       ncg     rms          ort
 gam= 0.000 g(H,U,f)=  0.501E-01 0.444E-03 0.178E-21 ort(H,U,f) = 0.000E+00 0.000E+00 0.000E+00
SDA:   1    -0.593640057483E+03    0.19367E-01    0.00000E+00  1200   0.505E-01 0.000E+00
 gam= 0.000 trial= 0.585  step= 0.691 mean= 0.585
 gam= 0.358 g(H,U,f)=  0.177E-01 0.332E-03 0.511E-21 ort(H,U,f) = 0.315E-03-0.321E-03-0.328E-21
CGA:   2    -0.593657508458E+03   -0.17451E-01   -0.17451E-01  1200   0.181E-01-0.621E-05
 gam= 0.358 trial= 0.591  step= 0.489 mean= 0.591
 gam= 0.145 g(H,U,f)=  0.252E-02 0.107E-03 0.382E-22 ort(H,U,f) =-0.326E-05-0.266E-05-0.111E-21
CGA:   3    -0.593661926085E+03   -0.44176E-02   -0.44173E-02  1200   0.263E-02-0.592E-05
 gam= 0.145 trial= 0.585  step= 0.511 mean= 0.585
 gam= 0.177 g(H,U,f)=  0.443E-03 0.211E-04 0.501E-25 ort(H,U,f) =-0.439E-04 0.439E-04-0.784E-24
CGA:   4    -0.593662596736E+03   -0.67065E-03   -0.67065E-03  1200   0.465E-03-0.928E-08
 gam= 0.177 trial= 0.582  step= 0.562 mean= 0.582
 gam= 0.220 g(H,U,f)=  0.949E-04 0.749E-05 0.542E-23 ort(H,U,f) =-0.171E-04 0.156E-04-0.107E-23
CGA:   5    -0.593662727379E+03   -0.13064E-03   -0.13063E-03  1200   0.102E-03-0.145E-05
 gam= 0.220 trial= 0.581  step= 0.628 mean= 0.581
 gam= 0.265 g(H,U,f)=  0.236E-04 0.354E-05 0.130E-24 ort(H,U,f) =-0.744E-05 0.729E-05 0.891E-24
CGA:   6    -0.593662759433E+03   -0.32054E-04   -0.32057E-04  1200   0.271E-04-0.156E-06
 gam= 0.265 trial= 0.583  step= 0.737 mean= 0.583
 gam= 0.323 g(H,U,f)=  0.821E-05 0.554E-06 0.380E-27 ort(H,U,f) =-0.168E-05 0.184E-05 0.216E-25
CGA:   7    -0.593662769428E+03   -0.99953E-05   -0.99833E-05  1200   0.876E-05 0.157E-06
 gam= 0.323 trial= 0.591  step= 0.767 mean= 0.591
 gam= 0.288 g(H,U,f)=  0.244E-05 0.818E-07 0.170E-24 ort(H,U,f) =-0.426E-06 0.426E-06 0.184E-24
CGA:   8    -0.593662772808E+03   -0.33804E-05   -0.33808E-05  1200   0.253E-05-0.727E-09
 gam= 0.288 trial= 0.600  step= 0.734 mean= 0.600
 final diagonalization
   3 F= -.59366277E+03 E0= -.59366277E+03  d E =-.424929E-03
 curvature:  -0.13 expect dE=-0.232E-03 dE for cont linesearch -0.787E-08
 trial: gam= 0.54573 g(F)=  0.178E-02 g(S)=  0.000E+00 ort = 0.139E-04 (trialstep = 0.852E+00)
 search vector abs. value=  0.275E-02
 bond charge predicted
 wavefunctions rotated
       N       E                     dE             d eps       ncg     rms          ort
 gam= 0.000 g(H,U,f)=  0.229E-01 0.259E-03 0.181E-20 ort(H,U,f) = 0.000E+00 0.000E+00 0.000E+00
SDA:   1    -0.593652918843E+03    0.98506E-02    0.00000E+00  1200   0.232E-01 0.000E+00
 gam= 0.000 trial= 0.606  step= 0.712 mean= 0.606
 gam= 0.354 g(H,U,f)=  0.791E-02 0.299E-03 0.745E-21 ort(H,U,f) = 0.231E-03-0.230E-03-0.122E-20
CGA:   2    -0.593661166730E+03   -0.82479E-02   -0.82478E-02  1200   0.821E-02 0.996E-06
 gam= 0.354 trial= 0.612  step= 0.471 mean= 0.612
 gam= 0.139 g(H,U,f)=  0.111E-02 0.284E-04 0.370E-22 ort(H,U,f) = 0.110E-04-0.711E-05 0.626E-22
CGA:   3    -0.593663101553E+03   -0.19348E-02   -0.19350E-02  1200   0.114E-02 0.388E-05
 gam= 0.139 trial= 0.605  step= 0.508 mean= 0.605
 gam= 0.188 g(H,U,f)=  0.204E-03 0.106E-04 0.487E-22 ort(H,U,f) =-0.146E-04 0.147E-04 0.554E-22
CGA:   4    -0.593663391924E+03   -0.29037E-03   -0.29038E-03  1200   0.215E-03 0.103E-06
 gam= 0.188 trial= 0.600  step= 0.540 mean= 0.600
 gam= 0.209 g(H,U,f)=  0.400E-04 0.478E-05 0.133E-22 ort(H,U,f) =-0.689E-05 0.797E-05 0.329E-22
CGA:   5    -0.593663449783E+03   -0.57859E-04   -0.57891E-04  1200   0.447E-04 0.108E-05
 gam= 0.209 trial= 0.597  step= 0.634 mean= 0.597
 gam= 0.275 g(H,U,f)=  0.107E-04 0.157E-05 0.656E-23 ort(H,U,f) =-0.316E-05 0.350E-05 0.154E-22
CGA:   6    -0.593663464038E+03   -0.14255E-04   -0.14249E-04  1200   0.123E-04 0.341E-06
 gam= 0.275 trial= 0.599  step= 0.736 mean= 0.599
 gam= 0.327 g(H,U,f)=  0.364E-05 0.374E-06 0.293E-23 ort(H,U,f) =-0.120E-05 0.114E-05 0.799E-23
CGA:   7    -0.593663468593E+03   -0.45553E-05   -0.45591E-05  1200   0.402E-05-0.579E-07
 gam= 0.327 trial= 0.605  step= 0.747 mean= 0.605
 gam= 0.279 g(H,U,f)=  0.108E-05 0.394E-07 0.161E-24 ort(H,U,f) =-0.149E-06 0.207E-06 0.144E-23
CGA:   8    -0.593663470091E+03   -0.14978E-05   -0.14934E-05  1200   0.112E-05 0.581E-07
 gam= 0.279 trial= 0.613  step= 0.724 mean= 0.613
 final diagonalization
   4 F= -.59366347E+03 E0= -.59366347E+03  d E =-.697283E-03
 trial-energy change:   -0.000697  1 .order   -0.000698   -0.001520    0.000124
 step:   0.7879(harm=  0.7879)  dis= 0.00242  next Energy=  -593.663475 (dE=-0.702E-03)
 bond charge predicted
 wavefunctions rotated
       N       E                     dE             d eps       ncg     rms          ort
 gam= 0.000 g(H,U,f)=  0.131E-03 0.138E-05 0.546E-22 ort(H,U,f) = 0.000E+00 0.000E+00 0.000E+00
SDA:   1    -0.593663414876E+03    0.53718E-04    0.00000E+00  1200   0.132E-03 0.000E+00
 gam= 0.000 trial= 0.618  step= 0.712 mean= 0.618
 gam= 0.359 g(H,U,f)=  0.458E-04 0.168E-05 0.248E-22 ort(H,U,f) = 0.117E-05-0.128E-05-0.366E-22
CGA:   2    -0.593663461933E+03   -0.47057E-04   -0.47063E-04  1200   0.475E-04-0.117E-06
 gam= 0.359 trial= 0.623  step= 0.471 mean= 0.623
 gam= 0.146 g(H,U,f)=  0.678E-05 0.159E-06 0.835E-24 ort(H,U,f) =-0.280E-06-0.262E-07 0.221E-23
CGA:   3    -0.593663473136E+03   -0.11203E-04   -0.11179E-04  1200   0.693E-05-0.306E-06
 gam= 0.146 trial= 0.615  step= 0.491 mean= 0.615
 gam= 0.194 g(H,U,f)=  0.128E-05 0.612E-07 0.127E-23 ort(H,U,f) =-0.844E-07 0.840E-07 0.148E-23
CGA:   4    -0.593663474827E+03   -0.16911E-05   -0.16912E-05  1200   0.134E-05-0.349E-09
 gam= 0.194 trial= 0.609  step= 0.568 mean= 0.609
 gam= 0.209 g(H,U,f)=  0.254E-06 0.271E-07 0.368E-24 ort(H,U,f) =-0.123E-06 0.429E-07 0.885E-24
CGA:   5    -0.593663475211E+03   -0.38342E-06   -0.38195E-06  1200   0.281E-06-0.803E-07
 gam= 0.209 trial= 0.607  step= 0.657 mean= 0.607
 gam= 0.281 g(H,U,f)=  0.716E-07 0.762E-08 0.893E-25 ort(H,U,f) =-0.422E-07 0.171E-07 0.292E-24
CGA:   6    -0.593663475297E+03   -0.85956E-07   -0.86893E-07  1200   0.792E-07-0.252E-07
 gam= 0.281 trial= 0.609  step= 0.627 mean= 0.609
 gam= 0.226 g(H,U,f)=  0.156E-07 0.222E-08 0.535E-25 ort(H,U,f) =-0.135E-08 0.647E-08 0.142E-24
CGA:   7    -0.593663475319E+03   -0.22435E-07   -0.22595E-07  1200   0.179E-07 0.512E-08
 gam= 0.226 trial= 0.610  step= 0.737 mean= 0.610
 gam= 0.296 g(H,U,f)=  0.479E-08 0.503E-09 0.918E-26 ort(H,U,f) =-0.102E-08 0.161E-08 0.384E-25
CGA:   8    -0.593663475326E+03   -0.71577E-08   -0.70034E-08  1200   0.529E-08 0.593E-09
 gam= 0.296 trial= 0.617  step= 1.526 mean= 0.617
 final diagonalization
   5 F= -.59366348E+03 E0= -.59366348E+03  d E =-.702518E-03
 curvature:  -0.61 expect dE=-0.140E-02 dE for cont linesearch -0.172E-09
 trial: gam= 1.30730 g(F)=  0.231E-02 g(S)=  0.000E+00 ort = 0.881E-06 (trialstep = 0.329E+00)
 search vector abs. value=  0.701E-02
 bond charge predicted
 wavefunctions rotated
       N       E                     dE             d eps       ncg     rms          ort
 gam= 0.000 g(H,U,f)=  0.115E-01 0.134E-03 0.193E-20 ort(H,U,f) = 0.000E+00 0.000E+00 0.000E+00
SDA:   1    -0.593658698789E+03    0.47765E-02    0.00000E+00  1200   0.116E-01 0.000E+00
 gam= 0.000 trial= 0.662  step= 0.713 mean= 0.662
 gam= 0.327 g(H,U,f)=  0.368E-02 0.127E-03 0.538E-20 ort(H,U,f) = 0.118E-03-0.121E-03-0.335E-20
CGA:   2    -0.593662845190E+03   -0.41464E-02   -0.41464E-02  1200   0.381E-02-0.331E-05
 gam= 0.327 trial= 0.665  step= 0.499 mean= 0.665
 gam= 0.149 g(H,U,f)=  0.544E-03 0.249E-04 0.676E-22 ort(H,U,f) =-0.765E-05 0.921E-05 0.475E-21
CGA:   3    -0.593663794106E+03   -0.94892E-03   -0.94907E-03  1200   0.569E-03 0.156E-05
 gam= 0.149 trial= 0.656  step= 0.506 mean= 0.656
 gam= 0.203 g(H,U,f)=  0.110E-03 0.549E-05 0.715E-22 ort(H,U,f) =-0.102E-04 0.104E-04 0.147E-21
CGA:   4    -0.593663937909E+03   -0.14380E-03   -0.14383E-03  1200   0.116E-03 0.240E-06
 gam= 0.203 trial= 0.649  step= 0.576 mean= 0.649
 gam= 0.229 g(H,U,f)=  0.236E-04 0.291E-05 0.300E-21 ort(H,U,f) =-0.527E-05 0.527E-05 0.217E-21
CGA:   5    -0.593663971242E+03   -0.33333E-04   -0.33333E-04  1200   0.265E-04 0.340E-08
 gam= 0.229 trial= 0.645  step= 0.694 mean= 0.645
 gam= 0.331 g(H,U,f)=  0.782E-05 0.950E-06 0.231E-22 ort(H,U,f) =-0.229E-05 0.215E-05 0.103E-21
CGA:   6    -0.593663980440E+03   -0.91974E-05   -0.92004E-05  1200   0.877E-05-0.134E-06
 gam= 0.331 trial= 0.648  step= 0.720 mean= 0.648
 gam= 0.320 g(H,U,f)=  0.264E-05 0.160E-06 0.218E-23 ort(H,U,f) =-0.474E-06 0.526E-06-0.187E-22
CGA:   7    -0.593663983586E+03   -0.31466E-05   -0.31445E-05  1200   0.280E-05 0.523E-07
 gam= 0.320 trial= 0.651  step= 0.715 mean= 0.651
 gam= 0.248 g(H,U,f)=  0.674E-06 0.215E-07 0.138E-23 ort(H,U,f) =-0.454E-07 0.101E-06 0.324E-23
CGA:   8    -0.593663984597E+03   -0.10108E-05   -0.10090E-05  1200   0.695E-06 0.551E-07
 gam= 0.248 trial= 0.654  step= 0.717 mean= 0.654
 final diagonalization
   6 F= -.59366398E+03 E0= -.59366398E+03  d E =-.509271E-03
 trial-energy change:   -0.000509  1 .order   -0.000508   -0.000761   -0.000256
 step:   0.4962(harm=  0.4962)  dis= 0.00252  next Energy=  -593.664048 (dE=-0.573E-03)
 bond charge predicted
 wavefunctions rotated
       N       E                     dE             d eps       ncg     rms          ort
 gam= 0.000 g(H,U,f)=  0.295E-02 0.344E-04 0.150E-20 ort(H,U,f) = 0.000E+00 0.000E+00 0.000E+00
SDA:   1    -0.593662693870E+03    0.12897E-02    0.00000E+00  1200   0.298E-02 0.000E+00
 gam= 0.000 trial= 0.658  step= 0.713 mean= 0.658
 gam= 0.328 g(H,U,f)=  0.946E-03 0.326E-04 0.429E-20 ort(H,U,f) = 0.294E-04-0.312E-04-0.258E-20
CGA:   2    -0.593663757648E+03   -0.10638E-02   -0.10638E-02  1200   0.978E-03-0.184E-05
 gam= 0.328 trial= 0.660  step= 0.499 mean= 0.660
 gam= 0.148 g(H,U,f)=  0.139E-03 0.647E-05 0.463E-22 ort(H,U,f) =-0.163E-05 0.240E-05 0.358E-21
CGA:   3    -0.593664001315E+03   -0.24367E-03   -0.24373E-03  1200   0.145E-03 0.776E-06
 gam= 0.148 trial= 0.652  step= 0.508 mean= 0.652
 gam= 0.202 g(H,U,f)=  0.279E-04 0.142E-05 0.541E-22 ort(H,U,f) =-0.257E-05 0.270E-05 0.111E-21
CGA:   4    -0.593664038226E+03   -0.36911E-04   -0.36921E-04  1200   0.293E-04 0.131E-06
 gam= 0.202 trial= 0.645  step= 0.580 mean= 0.645
 gam= 0.234 g(H,U,f)=  0.611E-05 0.755E-06 0.234E-21 ort(H,U,f) =-0.137E-05 0.137E-05 0.165E-21
CGA:   5    -0.593664046724E+03   -0.84979E-05   -0.84975E-05  1200   0.686E-05-0.828E-09
 gam= 0.234 trial= 0.642  step= 0.701 mean= 0.642
 gam= 0.337 g(H,U,f)=  0.207E-05 0.240E-06 0.147E-22 ort(H,U,f) =-0.629E-06 0.556E-06 0.720E-22
CGA:   6    -0.593664049128E+03   -0.24041E-05   -0.24065E-05  1200   0.231E-05-0.727E-07
 gam= 0.337 trial= 0.645  step= 0.714 mean= 0.645
 gam= 0.316 g(H,U,f)=  0.690E-06 0.395E-07 0.204E-23 ort(H,U,f) =-0.108E-06 0.134E-06-0.154E-22
CGA:   7    -0.593664049946E+03   -0.81765E-06   -0.81679E-06  1200   0.730E-06 0.262E-07
 gam= 0.316 trial= 0.648  step= 0.704 mean= 0.648
 gam= 0.244 g(H,U,f)=  0.173E-06 0.545E-08 0.912E-24 ort(H,U,f) = 0.207E-08 0.258E-07 0.198E-23
CGA:   8    -0.593664050206E+03   -0.26078E-06   -0.25986E-06  1200   0.178E-06 0.279E-07
 gam= 0.244 trial= 0.651  step= 0.717 mean= 0.651
 final diagonalization
   7 F= -.59366405E+03 E0= -.59366405E+03  d E =-.574880E-03
 curvature:  -0.75 expect dE=-0.142E-02 dE for cont linesearch -0.656E-10
 trial: gam= 0.81422 g(F)=  0.188E-02 g(S)=  0.000E+00 ort =-0.782E-06 (trialstep = 0.363E+00)
 search vector abs. value=  0.653E-02
 bond charge predicted
 wavefunctions rotated
       N       E                     dE             d eps       ncg     rms          ort
 gam= 0.000 g(H,U,f)=  0.150E-01 0.190E-03 0.124E-20 ort(H,U,f) = 0.000E+00 0.000E+00 0.000E+00
SDA:   1    -0.593658140905E+03    0.59090E-02    0.00000E+00  1200   0.152E-01 0.000E+00
 gam= 0.000 trial= 0.654  step= 0.649 mean= 0.654
 gam= 0.299 g(H,U,f)=  0.441E-02 0.134E-03 0.996E-21 ort(H,U,f) = 0.145E-03-0.146E-03 0.739E-21
CGA:   2    -0.593663078226E+03   -0.49373E-02   -0.49373E-02  1200   0.455E-02-0.131E-05
 gam= 0.299 trial= 0.654  step= 0.530 mean= 0.654
 gam= 0.164 g(H,U,f)=  0.727E-03 0.181E-04 0.176E-19 ort(H,U,f) =-0.105E-04 0.101E-04-0.744E-20
CGA:   3    -0.593664284722E+03   -0.12065E-02   -0.12065E-02  1200   0.745E-03-0.431E-06
 gam= 0.164 trial= 0.648  step= 0.505 mean= 0.648
 gam= 0.204 g(H,U,f)=  0.144E-03 0.743E-05 0.157E-20 ort(H,U,f) =-0.107E-04 0.110E-04 0.501E-20
CGA:   4    -0.593664472745E+03   -0.18802E-03   -0.18805E-03  1200   0.152E-03 0.300E-06
 gam= 0.204 trial= 0.641  step= 0.554 mean= 0.641
 gam= 0.220 g(H,U,f)=  0.295E-04 0.384E-05 0.120E-20 ort(H,U,f) =-0.683E-05 0.657E-05 0.235E-20
CGA:   5    -0.593664514787E+03   -0.42042E-04   -0.42032E-04  1200   0.334E-04-0.258E-06
 gam= 0.220 trial= 0.636  step= 0.672 mean= 0.636
 gam= 0.315 g(H,U,f)=  0.944E-05 0.105E-05 0.105E-20 ort(H,U,f) =-0.267E-05 0.254E-05 0.168E-20
CGA:   6    -0.593664525975E+03   -0.11187E-04   -0.11190E-04  1200   0.105E-04-0.129E-06
 gam= 0.315 trial= 0.638  step= 0.717 mean= 0.638
 gam= 0.319 g(H,U,f)=  0.309E-05 0.256E-06 0.617E-24 ort(H,U,f) =-0.789E-06 0.794E-06-0.403E-22
CGA:   7    -0.593664529724E+03   -0.37493E-05   -0.37486E-05  1200   0.334E-05 0.496E-08
 gam= 0.319 trial= 0.642  step= 0.721 mean= 0.642
 gam= 0.247 g(H,U,f)=  0.794E-06 0.324E-07 0.937E-23 ort(H,U,f) =-0.120E-06 0.136E-06 0.501E-22
CGA:   8    -0.593664530930E+03   -0.12064E-05   -0.12063E-05  1200   0.827E-06 0.151E-07
 gam= 0.247 trial= 0.646  step= 0.696 mean= 0.646
 final diagonalization
   8 F= -.59366453E+03 E0= -.59366453E+03  d E =-.480724E-03
 trial-energy change:   -0.000481  1 .order   -0.000481   -0.000683   -0.000278
 step:   0.6123(harm=  0.6123)  dis= 0.00282  next Energy=  -593.664627 (dE=-0.576E-03)
 bond charge predicted
 wavefunctions rotated
       N       E                     dE             d eps       ncg     rms          ort
 gam= 0.000 g(H,U,f)=  0.712E-02 0.901E-04 0.146E-20 ort(H,U,f) = 0.000E+00 0.000E+00 0.000E+00
SDA:   1    -0.593661601976E+03    0.29277E-02    0.00000E+00  1200   0.721E-02 0.000E+00
 gam= 0.000 trial= 0.649  step= 0.648 mean= 0.649
 gam= 0.299 g(H,U,f)=  0.209E-02 0.634E-04 0.140E-20 ort(H,U,f) = 0.684E-04-0.691E-04 0.835E-21
CGA:   2    -0.593663939407E+03   -0.23374E-02   -0.23374E-02  1200   0.215E-02-0.735E-06
 gam= 0.299 trial= 0.649  step= 0.531 mean= 0.649
 gam= 0.163 g(H,U,f)=  0.343E-03 0.856E-05 0.188E-19 ort(H,U,f) =-0.505E-05 0.474E-05-0.775E-20
CGA:   3    -0.593664510667E+03   -0.57126E-03   -0.57125E-03  1200   0.352E-03-0.306E-06
 gam= 0.163 trial= 0.643  step= 0.506 mean= 0.643
 gam= 0.202 g(H,U,f)=  0.676E-04 0.352E-05 0.161E-20 ort(H,U,f) =-0.499E-05 0.520E-05 0.523E-20
CGA:   4    -0.593664599586E+03   -0.88918E-04   -0.88933E-04  1200   0.711E-04 0.212E-06
 gam= 0.202 trial= 0.636  step= 0.556 mean= 0.636
 gam= 0.222 g(H,U,f)=  0.140E-04 0.181E-05 0.128E-20 ort(H,U,f) =-0.327E-05 0.310E-05 0.245E-20
CGA:   5    -0.593664619375E+03   -0.19789E-04   -0.19782E-04  1200   0.158E-04-0.177E-06
 gam= 0.222 trial= 0.632  step= 0.674 mean= 0.632
 gam= 0.316 g(H,U,f)=  0.451E-05 0.491E-06 0.106E-20 ort(H,U,f) =-0.129E-05 0.120E-05 0.173E-20
CGA:   6    -0.593664624682E+03   -0.53076E-05   -0.53098E-05  1200   0.500E-05-0.921E-07
 gam= 0.316 trial= 0.634  step= 0.716 mean= 0.634
 gam= 0.318 g(H,U,f)=  0.147E-05 0.119E-06 0.137E-23 ort(H,U,f) =-0.368E-06 0.372E-06-0.605E-22
CGA:   7    -0.593664626461E+03   -0.17784E-05   -0.17778E-05  1200   0.159E-05 0.389E-08
 gam= 0.318 trial= 0.638  step= 0.719 mean= 0.638
 gam= 0.246 g(H,U,f)=  0.377E-06 0.151E-07 0.928E-23 ort(H,U,f) =-0.519E-07 0.633E-07 0.485E-22
CGA:   8    -0.593664627034E+03   -0.57308E-06   -0.57236E-06  1200   0.392E-06 0.114E-07
 gam= 0.246 trial= 0.642  step= 0.690 mean= 0.642
 final diagonalization
   9 F= -.59366463E+03 E0= -.59366463E+03  d E =-.576827E-03
 curvature:  -1.06 expect dE=-0.291E-02 dE for cont linesearch -0.916E-10
 trial: gam= 1.44862 g(F)=  0.273E-02 g(S)=  0.000E+00 ort = 0.751E-06 (trialstep = 0.164E+00)
 search vector abs. value=  0.164E-01
 bond charge predicted
 wavefunctions rotated
       N       E                     dE             d eps       ncg     rms          ort
 gam= 0.000 g(H,U,f)=  0.496E-02 0.599E-04 0.468E-20 ort(H,U,f) = 0.000E+00 0.000E+00 0.000E+00
SDA:   1    -0.593662931488E+03    0.16950E-02    0.00000E+00  1200   0.502E-02 0.000E+00
 gam= 0.000 trial= 0.644  step= 0.660 mean= 0.644
 gam= 0.296 g(H,U,f)=  0.145E-02 0.393E-04 0.172E-19 ort(H,U,f) = 0.455E-04-0.434E-04-0.658E-20
CGA:   2    -0.593664586650E+03   -0.16552E-02   -0.16551E-02  1200   0.148E-02 0.210E-05
 gam= 0.296 trial= 0.645  step= 0.517 mean= 0.645
 gam= 0.160 g(H,U,f)=  0.232E-03 0.589E-05 0.134E-20 ort(H,U,f) =-0.471E-05 0.393E-05-0.482E-20
CGA:   3    -0.593664970233E+03   -0.38358E-03   -0.38354E-03  1200   0.238E-03-0.779E-06
 gam= 0.160 trial= 0.639  step= 0.497 mean= 0.639
 gam= 0.206 g(H,U,f)=  0.466E-04 0.228E-05 0.193E-22 ort(H,U,f) =-0.336E-05 0.360E-05-0.697E-22
CGA:   4    -0.593665029195E+03   -0.58961E-04   -0.58978E-04  1200   0.489E-04 0.241E-06
 gam= 0.206 trial= 0.632  step= 0.546 mean= 0.632
 gam= 0.218 g(H,U,f)=  0.944E-05 0.121E-05 0.101E-20 ort(H,U,f) =-0.197E-05 0.203E-05-0.359E-22
CGA:   5    -0.593665042563E+03   -0.13368E-04   -0.13371E-04  1200   0.107E-04 0.566E-07
 gam= 0.218 trial= 0.627  step= 0.666 mean= 0.627
 gam= 0.309 g(H,U,f)=  0.295E-05 0.339E-06 0.554E-21 ort(H,U,f) =-0.844E-06 0.817E-06 0.761E-21
CGA:   6    -0.593665046112E+03   -0.35488E-05   -0.35493E-05  1200   0.329E-05-0.277E-07
 gam= 0.309 trial= 0.629  step= 0.728 mean= 0.629
 gam= 0.327 g(H,U,f)=  0.100E-05 0.708E-07 0.102E-21 ort(H,U,f) =-0.264E-06 0.240E-06-0.353E-21
CGA:   7    -0.593665047305E+03   -0.11927E-05   -0.11937E-05  1200   0.107E-05-0.238E-07
 gam= 0.327 trial= 0.634  step= 0.731 mean= 0.634
 gam= 0.256 g(H,U,f)=  0.266E-06 0.925E-08 0.908E-22 ort(H,U,f) =-0.462E-07 0.416E-07 0.125E-22
CGA:   8    -0.593665047694E+03   -0.38980E-06   -0.38982E-06  1200   0.275E-06-0.463E-08
 gam= 0.256 trial= 0.639  step= 0.669 mean= 0.639
 final diagonalization
  10 F= -.59366505E+03 E0= -.59366505E+03  d E =-.420661E-03
 ZBRENT: can't locate minimum, use default step
 trial-energy change:   -0.000421  1 .order   -0.000421   -0.000448   -0.000393
 step:   0.6556(harm=  1.3227)  dis= 0.00439  next Energy=  -593.666436 (dE=-0.181E-02)
 bond charge predicted
 wavefunctions rotated
       N       E                     dE             d eps       ncg     rms          ort
 gam= 0.000 g(H,U,f)=  0.446E-01 0.539E-03 0.892E-19 ort(H,U,f) = 0.000E+00 0.000E+00 0.000E+00
SDA:   1    -0.593646924857E+03    0.18122E-01    0.00000E+00  1200   0.452E-01 0.000E+00
 gam= 0.000 trial= 0.641  step= 0.660 mean= 0.641
 gam= 0.296 g(H,U,f)=  0.130E-01 0.354E-03 0.196E-18 ort(H,U,f) = 0.396E-03-0.391E-03-0.339E-19
CGA:   2    -0.593661821651E+03   -0.14897E-01   -0.14897E-01  1200   0.134E-01 0.469E-05
 gam= 0.296 trial= 0.642  step= 0.516 mean= 0.642
 gam= 0.160 g(H,U,f)=  0.209E-02 0.533E-04 0.393E-19 ort(H,U,f) =-0.378E-04 0.358E-04-0.123E-18
CGA:   3    -0.593665273574E+03   -0.34519E-02   -0.34519E-02  1200   0.214E-02-0.206E-05
 gam= 0.160 trial= 0.635  step= 0.497 mean= 0.635
 gam= 0.207 g(H,U,f)=  0.423E-03 0.205E-04 0.393E-22 ort(H,U,f) =-0.317E-04 0.324E-04-0.620E-21
CGA:   4    -0.593665805791E+03   -0.53222E-03   -0.53226E-03  1200   0.443E-03 0.730E-06
 gam= 0.207 trial= 0.628  step= 0.546 mean= 0.628
 gam= 0.217 g(H,U,f)=  0.852E-04 0.109E-04 0.253E-19 ort(H,U,f) =-0.181E-04 0.183E-04 0.233E-20
CGA:   5    -0.593665926834E+03   -0.12104E-03   -0.12105E-03  1200   0.961E-04 0.166E-06
 gam= 0.217 trial= 0.624  step= 0.664 mean= 0.624
 gam= 0.307 g(H,U,f)=  0.264E-04 0.308E-05 0.134E-19 ort(H,U,f) =-0.744E-05 0.738E-05 0.191E-19
CGA:   6    -0.593665958726E+03   -0.31892E-04   -0.31893E-04  1200   0.295E-04-0.576E-07
 gam= 0.307 trial= 0.626  step= 0.725 mean= 0.626
 gam= 0.324 g(H,U,f)=  0.891E-05 0.652E-06 0.165E-20 ort(H,U,f) =-0.225E-05 0.220E-05-0.699E-20
CGA:   7    -0.593665969405E+03   -0.10679E-04   -0.10682E-04  1200   0.956E-05-0.522E-07
 gam= 0.324 trial= 0.631  step= 0.732 mean= 0.631
 gam= 0.257 g(H,U,f)=  0.237E-05 0.870E-07 0.197E-20 ort(H,U,f) =-0.405E-06 0.391E-06 0.694E-21
CGA:   8    -0.593665972897E+03   -0.34914E-05   -0.34921E-05  1200   0.246E-05-0.142E-07
 gam= 0.257 trial= 0.636  step= 0.702 mean= 0.636
 final diagonalization
  11 F= -.59366597E+03 E0= -.59366597E+03  d E =-.134586E-02
 curvature:  -2.66 expect dE=-0.554E-02 dE for cont linesearch -0.305E-03
 ZBRENT: increasing intervall
 opt :   1.6391  next Energy=  -593.666319 (dE=-0.169E-02)
 bond charge predicted
 wavefunctions rotated
       N       E                     dE             d eps       ncg     rms          ort
 gam= 0.000 g(H,U,f)=  0.179E+00 0.216E-02 0.675E-18 ort(H,U,f) = 0.000E+00 0.000E+00 0.000E+00
SDA:   1    -0.593590087569E+03    0.75882E-01    0.00000E+00  1200   0.181E+00 0.000E+00
 gam= 0.000 trial= 0.640  step= 0.659 mean= 0.640
 gam= 0.297 g(H,U,f)=  0.522E-01 0.142E-02 0.469E-18 ort(H,U,f) = 0.156E-02-0.157E-02 0.325E-18
CGA:   2    -0.593649689188E+03   -0.59602E-01   -0.59602E-01  1200   0.536E-01-0.534E-05
 gam= 0.297 trial= 0.641  step= 0.516 mean= 0.641
 gam= 0.160 g(H,U,f)=  0.836E-02 0.214E-03 0.599E-18 ort(H,U,f) =-0.145E-03 0.143E-03-0.161E-17
CGA:   3    -0.593663511832E+03   -0.13823E-01   -0.13823E-01  1200   0.858E-02-0.203E-05
 gam= 0.160 trial= 0.634  step= 0.498 mean= 0.634
 gam= 0.207 g(H,U,f)=  0.169E-02 0.824E-04 0.141E-20 ort(H,U,f) =-0.129E-03 0.130E-03 0.154E-19
CGA:   4    -0.593665646894E+03   -0.21351E-02   -0.21351E-02  1200   0.177E-02 0.128E-05
 gam= 0.207 trial= 0.627  step= 0.547 mean= 0.627
 gam= 0.217 g(H,U,f)=  0.341E-03 0.436E-04 0.341E-18 ort(H,U,f) =-0.731E-04 0.734E-04 0.749E-19
CGA:   5    -0.593666131497E+03   -0.48460E-03   -0.48461E-03  1200   0.385E-03 0.306E-06
 gam= 0.217 trial= 0.623  step= 0.664 mean= 0.623
 gam= 0.307 g(H,U,f)=  0.106E-03 0.124E-04 0.167E-18 ort(H,U,f) =-0.297E-04 0.297E-04 0.253E-18
CGA:   6    -0.593666259292E+03   -0.12780E-03   -0.12780E-03  1200   0.118E-03-0.326E-07
 gam= 0.307 trial= 0.625  step= 0.724 mean= 0.625
 gam= 0.324 g(H,U,f)=  0.357E-04 0.263E-05 0.127E-19 ort(H,U,f) =-0.889E-05 0.885E-05-0.698E-19
CGA:   7    -0.593666302131E+03   -0.42839E-04   -0.42842E-04  1200   0.383E-04-0.461E-07
 gam= 0.324 trial= 0.630  step= 0.732 mean= 0.630
 gam= 0.257 g(H,U,f)=  0.951E-05 0.351E-06 0.236E-19 ort(H,U,f) =-0.160E-05 0.158E-05 0.140E-19
CGA:   8    -0.593666316150E+03   -0.14018E-04   -0.14019E-04  1200   0.986E-05-0.184E-07
 gam= 0.257 trial= 0.635  step= 0.711 mean= 0.635
 gam= 0.223 g(H,U,f)=  0.215E-05 0.470E-07 0.429E-21 ort(H,U,f) = 0.312E-07 0.858E-07 0.370E-20
CGA:   9    -0.593666319659E+03   -0.35091E-05   -0.35046E-05  1200   0.220E-05 0.117E-06
 gam= 0.223 trial= 0.639  step= 0.738 mean= 0.639
 final diagonalization
  12 F= -.59366632E+03 E0= -.59366632E+03  d E =-.169263E-02
 curvature:  -3.02 expect dE=-0.267E-01 dE for cont linesearch -0.817E-04
 ZBRENT: bracketing found
 ZBRENT: interpolating
 opt :   1.3175  next Energy=  -593.666427 (dE=-0.180E-02)
 bond charge predicted
 wavefunctions rotated
       N       E                     dE             d eps       ncg     rms          ort
 gam= 0.000 g(H,U,f)=  0.191E-01 0.231E-03 0.149E-18 ort(H,U,f) = 0.000E+00 0.000E+00 0.000E+00
SDA:   1    -0.593658268113E+03    0.80480E-02    0.00000E+00  1200   0.194E-01 0.000E+00
 gam= 0.000 trial= 0.644  step= 0.660 mean= 0.644
 gam= 0.296 g(H,U,f)=  0.558E-02 0.150E-03 0.945E-18 ort(H,U,f) = 0.164E-03-0.167E-03-0.553E-18
CGA:   2    -0.593664649542E+03   -0.63814E-02   -0.63815E-02  1200   0.573E-02-0.321E-05
 gam= 0.296 trial= 0.645  step= 0.516 mean= 0.645
 gam= 0.160 g(H,U,f)=  0.894E-03 0.226E-04 0.237E-19 ort(H,U,f) =-0.135E-04 0.152E-04-0.943E-19
CGA:   3    -0.593666128080E+03   -0.14785E-02   -0.14786E-02  1200   0.916E-03 0.163E-05
 gam= 0.160 trial= 0.639  step= 0.498 mean= 0.639
 gam= 0.206 g(H,U,f)=  0.181E-03 0.866E-05 0.325E-20 ort(H,U,f) =-0.142E-04 0.137E-04-0.328E-20
CGA:   4    -0.593666356262E+03   -0.22818E-03   -0.22815E-03  1200   0.189E-03-0.473E-06
 gam= 0.206 trial= 0.631  step= 0.548 mean= 0.631
 gam= 0.215 g(H,U,f)=  0.361E-04 0.455E-05 0.343E-19 ort(H,U,f) =-0.776E-05 0.766E-05-0.830E-20
CGA:   5    -0.593666408106E+03   -0.51844E-04   -0.51840E-04  1200   0.407E-04-0.978E-07
 gam= 0.215 trial= 0.627  step= 0.659 mean= 0.627
 gam= 0.302 g(H,U,f)=  0.110E-04 0.130E-05 0.149E-19 ort(H,U,f) =-0.303E-05 0.310E-05 0.220E-19
CGA:   6    -0.593666421514E+03   -0.13409E-04   -0.13407E-04  1200   0.123E-04 0.791E-07
 gam= 0.302 trial= 0.629  step= 0.720 mean= 0.629
 gam= 0.321 g(H,U,f)=  0.365E-05 0.283E-06 0.419E-20 ort(H,U,f) =-0.882E-06 0.939E-06-0.118E-19
CGA:   7    -0.593666425942E+03   -0.44276E-05   -0.44249E-05  1200   0.394E-05 0.574E-07
 gam= 0.321 trial= 0.633  step= 0.729 mean= 0.633
 gam= 0.256 g(H,U,f)=  0.969E-06 0.399E-07 0.293E-20 ort(H,U,f) =-0.163E-06 0.178E-06-0.350E-21
CGA:   8    -0.593666427385E+03   -0.14431E-05   -0.14421E-05  1200   0.101E-05 0.144E-07
 gam= 0.256 trial= 0.638  step= 0.746 mean= 0.638
 final diagonalization
  13 F= -.59366643E+03 E0= -.59366643E+03  d E =-.180035E-02
 curvature:  -3.96 expect dE=-0.223E-01 dE for cont linesearch -0.353E-08
 trial: gam= 2.05130 g(F)=  0.563E-02 g(S)=  0.000E+00 ort = 0.383E-05 (trialstep = 0.867E-01)
 search vector abs. value=  0.748E-01
 bond charge predicted
 wavefunctions rotated
       N       E                     dE             d eps       ncg     rms          ort
 gam= 0.000 g(H,U,f)=  0.750E-02 0.931E-04 0.506E-18 ort(H,U,f) = 0.000E+00 0.000E+00 0.000E+00
SDA:   1    -0.593663653204E+03    0.27727E-02    0.00000E+00  1200   0.759E-02 0.000E+00
 gam= 0.000 trial= 0.644  step= 0.665 mean= 0.644
 gam= 0.296 g(H,U,f)=  0.218E-02 0.681E-04 0.401E-18 ort(H,U,f) = 0.715E-04-0.718E-04-0.494E-18
CGA:   2    -0.593666177398E+03   -0.25242E-02   -0.25242E-02  1200   0.225E-02-0.365E-06
 gam= 0.296 trial= 0.645  step= 0.519 mean= 0.645
 gam= 0.157 g(H,U,f)=  0.345E-03 0.844E-05 0.412E-19 ort(H,U,f) =-0.452E-05 0.447E-05 0.631E-19
CGA:   3    -0.593666761299E+03   -0.58390E-03   -0.58390E-03  1200   0.354E-03-0.425E-07
 gam= 0.157 trial= 0.638  step= 0.498 mean= 0.638
 gam= 0.210 g(H,U,f)=  0.708E-04 0.346E-05 0.106E-19 ort(H,U,f) =-0.491E-05 0.520E-05 0.260E-19
CGA:   4    -0.593666849484E+03   -0.88184E-04   -0.88205E-04  1200   0.743E-04 0.293E-06
 gam= 0.210 trial= 0.631  step= 0.540 mean= 0.631
 gam= 0.211 g(H,U,f)=  0.138E-04 0.185E-05 0.682E-19 ort(H,U,f) =-0.293E-05 0.308E-05 0.412E-19
CGA:   5    -0.593666869536E+03   -0.20052E-04   -0.20059E-04  1200   0.157E-04 0.148E-06
 gam= 0.211 trial= 0.627  step= 0.670 mean= 0.627
 gam= 0.305 g(H,U,f)=  0.427E-05 0.501E-06 0.109E-19 ort(H,U,f) =-0.129E-05 0.118E-05 0.311E-19
CGA:   6    -0.593666874787E+03   -0.52518E-05   -0.52541E-05  1200   0.477E-05-0.112E-06
 gam= 0.305 trial= 0.629  step= 0.733 mean= 0.629
 gam= 0.326 g(H,U,f)=  0.144E-05 0.116E-06 0.188E-20 ort(H,U,f) =-0.429E-06 0.367E-06-0.860E-20
CGA:   7    -0.593666876521E+03   -0.17331E-05   -0.17363E-05  1200   0.155E-05-0.621E-07
 gam= 0.326 trial= 0.634  step= 0.708 mean= 0.634
 gam= 0.244 g(H,U,f)=  0.363E-06 0.157E-07 0.700E-21 ort(H,U,f) =-0.307E-07 0.674E-07 0.570E-21
CGA:   8    -0.593666877065E+03   -0.54413E-06   -0.54285E-06  1200   0.379E-06 0.367E-07
 gam= 0.244 trial= 0.638  step= 0.694 mean= 0.638
 final diagonalization
  14 F= -.59366688E+03 E0= -.59366688E+03  d E =-.449680E-03
 ZBRENT: can't locate minimum, use default step
 trial-energy change:   -0.000450  1 .order   -0.000449   -0.000489   -0.000409
 step:   0.3468(harm=  0.5320)  dis= 0.00441  next Energy=  -593.667928 (dE=-0.150E-02)
 bond charge predicted
 wavefunctions rotated
       N       E                     dE             d eps       ncg     rms          ort
 gam= 0.000 g(H,U,f)=  0.676E-01 0.833E-03 0.532E-17 ort(H,U,f) = 0.000E+00 0.000E+00 0.000E+00
SDA:   1    -0.593638721178E+03    0.28155E-01    0.00000E+00  1200   0.684E-01 0.000E+00
 gam= 0.000 trial= 0.641  step= 0.665 mean= 0.641
 gam= 0.296 g(H,U,f)=  0.196E-01 0.618E-03 0.555E-17 ort(H,U,f) = 0.649E-03-0.647E-03-0.672E-17
CGA:   2    -0.593661446103E+03   -0.22725E-01   -0.22725E-01  1200   0.202E-01 0.192E-05
 gam= 0.296 trial= 0.642  step= 0.519 mean= 0.642
 gam= 0.157 g(H,U,f)=  0.310E-02 0.766E-04 0.595E-18 ort(H,U,f) =-0.418E-04 0.412E-04 0.602E-18
CGA:   3    -0.593666705778E+03   -0.52597E-02   -0.52596E-02  1200   0.318E-02-0.605E-06
 gam= 0.157 trial= 0.636  step= 0.501 mean= 0.636
 gam= 0.208 g(H,U,f)=  0.630E-03 0.317E-04 0.132E-18 ort(H,U,f) =-0.468E-04 0.476E-04 0.323E-18
CGA:   4    -0.593667501400E+03   -0.79562E-03   -0.79568E-03  1200   0.662E-03 0.840E-06
 gam= 0.208 trial= 0.629  step= 0.542 mean= 0.629
 gam= 0.215 g(H,U,f)=  0.126E-03 0.169E-04 0.810E-18 ort(H,U,f) =-0.277E-04 0.281E-04 0.506E-18
CGA:   5    -0.593667680825E+03   -0.17942E-03   -0.17944E-03  1200   0.142E-03 0.418E-06
 gam= 0.215 trial= 0.625  step= 0.667 mean= 0.625
 gam= 0.305 g(H,U,f)=  0.388E-04 0.455E-05 0.443E-22 ort(H,U,f) =-0.111E-04 0.108E-04-0.279E-21
CGA:   6    -0.593667728388E+03   -0.47563E-04   -0.47570E-04  1200   0.434E-04-0.308E-06
 gam= 0.305 trial= 0.627  step= 0.729 mean= 0.627
 gam= 0.325 g(H,U,f)=  0.130E-04 0.106E-05 0.305E-23 ort(H,U,f) =-0.352E-05 0.337E-05-0.111E-22
CGA:   7    -0.593667744161E+03   -0.15773E-04   -0.15781E-04  1200   0.141E-04-0.156E-06
 gam= 0.325 trial= 0.632  step= 0.724 mean= 0.632
 gam= 0.253 g(H,U,f)=  0.343E-05 0.140E-06 0.411E-23 ort(H,U,f) =-0.480E-06 0.595E-06 0.650E-24
CGA:   8    -0.593667749254E+03   -0.50933E-05   -0.50884E-05  1200   0.357E-05 0.115E-06
 gam= 0.253 trial= 0.637  step= 0.708 mean= 0.637
 gam= 0.227 g(H,U,f)=  0.789E-06 0.199E-07 0.176E-22 ort(H,U,f) = 0.734E-08 0.414E-07-0.911E-23
CGA:   9    -0.593667750530E+03   -0.12757E-05   -0.12741E-05  1200   0.809E-06 0.487E-07
 gam= 0.227 trial= 0.640  step= 0.739 mean= 0.640
 final diagonalization
  15 F= -.59366775E+03 E0= -.59366775E+03  d E =-.132314E-02
 curvature:  -2.92 expect dE=-0.117E-01 dE for cont linesearch -0.155E-03
 ZBRENT: increasing intervall
 opt :   0.8671  next Energy=  -593.667366 (dE=-0.939E-03)
 bond charge predicted
 wavefunctions rotated
       N       E                     dE             d eps       ncg     rms          ort
 gam= 0.000 g(H,U,f)=  0.270E+00 0.330E-02 0.241E-16 ort(H,U,f) = 0.000E+00 0.000E+00 0.000E+00
SDA:   1    -0.593551201393E+03    0.11655E+00    0.00000E+00  1200   0.274E+00 0.000E+00
 gam= 0.000 trial= 0.645  step= 0.665 mean= 0.645
 gam= 0.296 g(H,U,f)=  0.785E-01 0.249E-02 0.340E-16 ort(H,U,f) = 0.260E-02-0.259E-02-0.400E-16
CGA:   2    -0.593642130701E+03   -0.90929E-01   -0.90929E-01  1200   0.810E-01 0.178E-04
 gam= 0.296 trial= 0.646  step= 0.519 mean= 0.646
 gam= 0.157 g(H,U,f)=  0.124E-01 0.310E-03 0.397E-17 ort(H,U,f) =-0.175E-03 0.172E-03 0.231E-17
CGA:   3    -0.593663172355E+03   -0.21042E-01   -0.21042E-01  1200   0.127E-01-0.326E-05
 gam= 0.157 trial= 0.640  step= 0.501 mean= 0.640
 gam= 0.209 g(H,U,f)=  0.253E-02 0.129E-03 0.792E-18 ort(H,U,f) =-0.193E-03 0.195E-03 0.189E-17
CGA:   4    -0.593666363769E+03   -0.31914E-02   -0.31915E-02  1200   0.266E-02 0.121E-05
 gam= 0.209 trial= 0.633  step= 0.542 mean= 0.633
 gam= 0.216 g(H,U,f)=  0.505E-03 0.687E-04 0.272E-20 ort(H,U,f) =-0.114E-03 0.115E-03-0.885E-21
CGA:   5    -0.593667085786E+03   -0.72202E-03   -0.72204E-03  1200   0.574E-03 0.644E-06
 gam= 0.216 trial= 0.628  step= 0.667 mean= 0.628
 gam= 0.305 g(H,U,f)=  0.156E-03 0.185E-04 0.490E-21 ort(H,U,f) =-0.447E-04 0.442E-04-0.126E-20
CGA:   6    -0.593667277370E+03   -0.19158E-03   -0.19159E-03  1200   0.175E-03-0.531E-06
 gam= 0.305 trial= 0.630  step= 0.728 mean= 0.630
 gam= 0.324 g(H,U,f)=  0.524E-04 0.431E-05 0.804E-22 ort(H,U,f) =-0.140E-04 0.138E-04 0.419E-22
CGA:   7    -0.593667341013E+03   -0.63643E-04   -0.63654E-04  1200   0.567E-04-0.225E-06
 gam= 0.324 trial= 0.635  step= 0.728 mean= 0.635
 gam= 0.256 g(H,U,f)=  0.139E-04 0.565E-06 0.150E-23 ort(H,U,f) =-0.217E-05 0.241E-05-0.133E-22
CGA:   8    -0.593667361653E+03   -0.20640E-04   -0.20629E-04  1200   0.145E-04 0.237E-06
 gam= 0.256 trial= 0.640  step= 0.711 mean= 0.640
 gam= 0.227 g(H,U,f)=  0.321E-05 0.797E-07 0.756E-22 ort(H,U,f) =-0.610E-07 0.158E-06 0.132E-22
CGA:   9    -0.593667366835E+03   -0.51824E-05   -0.51792E-05  1200   0.329E-05 0.966E-07
 gam= 0.227 trial= 0.643  step= 0.734 mean= 0.643
 gam= 0.241 g(H,U,f)=  0.774E-06 0.172E-07 0.843E-24 ort(H,U,f) =-0.277E-08-0.594E-08 0.846E-23
CGA:  10    -0.593667368049E+03   -0.12138E-05   -0.12142E-05  1200   0.792E-06-0.871E-08
 gam= 0.241 trial= 0.648  step= 0.808 mean= 0.648
 final diagonalization
  16 F= -.59366737E+03 E0= -.59366737E+03  d E =-.940664E-03
 curvature:   7.26 expect dE= 0.165E+00 dE for cont linesearch  0.116E-02
 ZBRENT: bracketing found
 ZBRENT: interpolating
 opt :   0.5368  next Energy=  -593.667940 (dE=-0.151E-02)
 bond charge predicted
 wavefunctions rotated
       N       E                     dE             d eps       ncg     rms          ort
 gam= 0.000 g(H,U,f)=  0.109E+00 0.137E-02 0.654E-18 ort(H,U,f) = 0.000E+00 0.000E+00 0.000E+00
SDA:   1    -0.593621024365E+03    0.46342E-01    0.00000E+00  1200   0.111E+00 0.000E+00
 gam= 0.000 trial= 0.656  step= 0.664 mean= 0.656
 gam= 0.296 g(H,U,f)=  0.318E-01 0.970E-03 0.214E-17 ort(H,U,f) = 0.103E-02-0.103E-02-0.212E-17
CGA:   2    -0.593657753434E+03   -0.36729E-01   -0.36729E-01  1200   0.327E-01-0.263E-05
 gam= 0.296 trial= 0.656  step= 0.519 mean= 0.656
 gam= 0.157 g(H,U,f)=  0.500E-02 0.120E-03 0.667E-22 ort(H,U,f) =-0.582E-04 0.605E-04-0.421E-20
CGA:   3    -0.593666258029E+03   -0.85046E-02   -0.85048E-02  1200   0.513E-02 0.232E-05
 gam= 0.157 trial= 0.649  step= 0.500 mean= 0.649
 gam= 0.209 g(H,U,f)=  0.102E-02 0.492E-04 0.415E-21 ort(H,U,f) =-0.744E-04 0.736E-04 0.142E-20
CGA:   4    -0.593667539765E+03   -0.12817E-02   -0.12817E-02  1200   0.107E-02-0.834E-06
 gam= 0.209 trial= 0.642  step= 0.541 mean= 0.642
 gam= 0.213 g(H,U,f)=  0.202E-03 0.264E-04 0.106E-19 ort(H,U,f) =-0.442E-04 0.437E-04 0.352E-20
CGA:   5    -0.593667828992E+03   -0.28923E-03   -0.28920E-03  1200   0.228E-03-0.489E-06
 gam= 0.213 trial= 0.637  step= 0.661 mean= 0.637
 gam= 0.297 g(H,U,f)=  0.606E-04 0.727E-05 0.553E-22 ort(H,U,f) =-0.166E-04 0.171E-04 0.787E-21
CGA:   6    -0.593667904438E+03   -0.75446E-04   -0.75439E-04  1200   0.678E-04 0.547E-06
 gam= 0.297 trial= 0.638  step= 0.725 mean= 0.638
 gam= 0.322 g(H,U,f)=  0.201E-04 0.174E-05 0.465E-22 ort(H,U,f) =-0.510E-05 0.541E-05 0.267E-21
CGA:   7    -0.593667929091E+03   -0.24653E-04   -0.24639E-04  1200   0.218E-04 0.308E-06
 gam= 0.322 trial= 0.642  step= 0.739 mean= 0.642
 gam= 0.264 g(H,U,f)=  0.552E-05 0.236E-06 0.659E-22 ort(H,U,f) =-0.109E-05 0.977E-06 0.158E-21
CGA:   8    -0.593667937193E+03   -0.81021E-05   -0.81076E-05  1200   0.576E-05-0.115E-06
 gam= 0.264 trial= 0.647  step= 0.717 mean= 0.647
 gam= 0.228 g(H,U,f)=  0.128E-05 0.322E-07 0.280E-22 ort(H,U,f) =-0.106E-06 0.600E-07-0.705E-22
CGA:   9    -0.593667939243E+03   -0.20503E-05   -0.20517E-05  1200   0.131E-05-0.463E-07
 gam= 0.228 trial= 0.651  step= 0.722 mean= 0.651
 final diagonalization
  17 F= -.59366794E+03 E0= -.59366794E+03  d E =-.151186E-02
 curvature:  -1.18 expect dE=-0.931E-02 dE for cont linesearch -0.256E-09
 trial: gam= 1.39573 g(F)=  0.787E-02 g(S)=  0.000E+00 ort = 0.402E-05 (trialstep = 0.861E-01)
 search vector abs. value=  0.154E+00
 bond charge predicted
 wavefunctions rotated
       N       E                     dE             d eps       ncg     rms          ort
 gam= 0.000 g(H,U,f)=  0.166E-01 0.206E-03 0.154E-18 ort(H,U,f) = 0.000E+00 0.000E+00 0.000E+00
SDA:   1    -0.593661557713E+03    0.63795E-02    0.00000E+00  1200   0.168E-01 0.000E+00
 gam= 0.000 trial= 0.654  step= 0.652 mean= 0.654
 gam= 0.293 g(H,U,f)=  0.477E-02 0.150E-03 0.960E-19 ort(H,U,f) = 0.157E-03-0.158E-03-0.959E-19
CGA:   2    -0.593667031740E+03   -0.54740E-02   -0.54740E-02  1200   0.492E-02-0.114E-05
 gam= 0.293 trial= 0.654  step= 0.524 mean= 0.654
 gam= 0.160 g(H,U,f)=  0.767E-03 0.188E-04 0.113E-21 ort(H,U,f) =-0.727E-05 0.791E-05-0.318E-20
CGA:   3    -0.593668321235E+03   -0.12895E-02   -0.12895E-02  1200   0.786E-03 0.633E-06
 gam= 0.160 trial= 0.648  step= 0.505 mean= 0.648
 gam= 0.207 g(H,U,f)=  0.155E-03 0.784E-05 0.195E-23 ort(H,U,f) =-0.112E-04 0.117E-04-0.524E-22
CGA:   4    -0.593668519540E+03   -0.19830E-03   -0.19834E-03  1200   0.163E-03 0.502E-06
 gam= 0.207 trial= 0.640  step= 0.547 mean= 0.640
 gam= 0.215 g(H,U,f)=  0.307E-04 0.423E-05 0.135E-20 ort(H,U,f) =-0.673E-05 0.694E-05 0.235E-21
CGA:   5    -0.593668564077E+03   -0.44538E-04   -0.44547E-04  1200   0.349E-04 0.206E-06
 gam= 0.215 trial= 0.636  step= 0.669 mean= 0.636
 gam= 0.306 g(H,U,f)=  0.951E-05 0.115E-05 0.659E-23 ort(H,U,f) =-0.283E-05 0.267E-05-0.101E-21
CGA:   6    -0.593668575763E+03   -0.11685E-04   -0.11687E-04  1200   0.107E-04-0.161E-06
 gam= 0.306 trial= 0.638  step= 0.725 mean= 0.638
 gam= 0.321 g(H,U,f)=  0.317E-05 0.259E-06 0.854E-24 ort(H,U,f) =-0.910E-06 0.834E-06-0.877E-23
CGA:   7    -0.593668579609E+03   -0.38460E-05   -0.38496E-05  1200   0.342E-05-0.768E-07
 gam= 0.321 trial= 0.642  step= 0.707 mean= 0.642
 gam= 0.241 g(H,U,f)=  0.790E-06 0.362E-07 0.368E-23 ort(H,U,f) =-0.896E-07 0.158E-06 0.412E-23
CGA:   8    -0.593668580812E+03   -0.12034E-05   -0.12010E-05  1200   0.826E-06 0.684E-07
 gam= 0.241 trial= 0.645  step= 0.696 mean= 0.645
 final diagonalization
  18 F= -.59366858E+03 E0= -.59366858E+03  d E =-.641569E-03
 ZBRENT: can't locate minimum, use default step
 trial-energy change:   -0.000642  1 .order   -0.000641   -0.000678   -0.000605
 step:   0.3443(harm=  0.7968)  dis= 0.00652  next Energy=  -593.671078 (dE=-0.314E-02)
 bond charge predicted
 wavefunctions rotated
       N       E                     dE             d eps       ncg     rms          ort
 gam= 0.000 g(H,U,f)=  0.149E+00 0.185E-02 0.165E-17 ort(H,U,f) = 0.000E+00 0.000E+00 0.000E+00
SDA:   1    -0.593606864593E+03    0.61715E-01    0.00000E+00  1200   0.151E+00 0.000E+00
 gam= 0.000 trial= 0.648  step= 0.652 mean= 0.648
 gam= 0.293 g(H,U,f)=  0.430E-01 0.136E-02 0.235E-18 ort(H,U,f) = 0.141E-02-0.142E-02-0.256E-18
CGA:   2    -0.593656125801E+03   -0.49261E-01   -0.49261E-01  1200   0.443E-01-0.901E-05
 gam= 0.293 trial= 0.648  step= 0.523 mean= 0.648
 gam= 0.160 g(H,U,f)=  0.690E-02 0.171E-03 0.366E-20 ort(H,U,f) =-0.720E-04 0.745E-04-0.651E-19
CGA:   3    -0.593667724068E+03   -0.11598E-01   -0.11599E-01  1200   0.707E-02 0.257E-05
 gam= 0.160 trial= 0.642  step= 0.505 mean= 0.642
 gam= 0.208 g(H,U,f)=  0.140E-02 0.721E-04 0.889E-21 ort(H,U,f) =-0.106E-03 0.108E-03-0.342E-20
CGA:   4    -0.593669511006E+03   -0.17869E-02   -0.17870E-02  1200   0.147E-02 0.130E-05
 gam= 0.208 trial= 0.635  step= 0.547 mean= 0.635
 gam= 0.216 g(H,U,f)=  0.279E-03 0.388E-04 0.845E-20 ort(H,U,f) =-0.634E-04 0.640E-04-0.545E-21
CGA:   5    -0.593669912582E+03   -0.40158E-03   -0.40160E-03  1200   0.318E-03 0.584E-06
 gam= 0.216 trial= 0.630  step= 0.669 mean= 0.630
 gam= 0.307 g(H,U,f)=  0.869E-04 0.106E-04 0.431E-21 ort(H,U,f) =-0.251E-04 0.247E-04-0.207E-20
CGA:   6    -0.593670018894E+03   -0.10631E-03   -0.10632E-03  1200   0.975E-04-0.382E-06
 gam= 0.307 trial= 0.632  step= 0.724 mean= 0.632
 gam= 0.321 g(H,U,f)=  0.289E-04 0.238E-05 0.115E-21 ort(H,U,f) =-0.788E-05 0.772E-05-0.108E-21
CGA:   7    -0.593670054164E+03   -0.35270E-04   -0.35278E-04  1200   0.313E-04-0.162E-06
 gam= 0.321 trial= 0.637  step= 0.720 mean= 0.637
 gam= 0.249 g(H,U,f)=  0.749E-05 0.323E-06 0.106E-22 ort(H,U,f) =-0.117E-05 0.140E-05-0.247E-22
CGA:   8    -0.593670065432E+03   -0.11269E-04   -0.11259E-04  1200   0.781E-05 0.230E-06
 gam= 0.249 trial= 0.641  step= 0.708 mean= 0.641
 gam= 0.220 g(H,U,f)=  0.167E-05 0.446E-07 0.130E-21 ort(H,U,f) =-0.170E-07 0.104E-06-0.175E-22
CGA:   9    -0.593670068219E+03   -0.27872E-05   -0.27839E-05  1200   0.172E-05 0.872E-07
 gam= 0.220 trial= 0.644  step= 0.743 mean= 0.644
 final diagonalization
  19 F= -.59367007E+03 E0= -.59367007E+03  d E =-.212898E-02
 curvature:  -4.62 expect dE=-0.219E-01 dE for cont linesearch -0.609E-03
 ZBRENT: increasing intervall
 opt :   0.8607  next Energy=  -593.671087 (dE=-0.315E-02)
 bond charge predicted
 wavefunctions rotated
       N       E                     dE             d eps       ncg     rms          ort
 gam= 0.000 g(H,U,f)=  0.597E+00 0.737E-02 0.840E-17 ort(H,U,f) = 0.000E+00 0.000E+00 0.000E+00
SDA:   1    -0.593418201316E+03    0.25186E+00    0.00000E+00  1200   0.605E+00 0.000E+00
 gam= 0.000 trial= 0.649  step= 0.652 mean= 0.649
 gam= 0.294 g(H,U,f)=  0.172E+00 0.550E-02 0.286E-18 ort(H,U,f) = 0.564E-02-0.571E-02-0.166E-18
CGA:   2    -0.593615242764E+03   -0.19704E+00   -0.19704E+00  1200   0.178E+00-0.633E-04
 gam= 0.294 trial= 0.649  step= 0.523 mean= 0.649
 gam= 0.160 g(H,U,f)=  0.277E-01 0.699E-03 0.545E-19 ort(H,U,f) =-0.302E-03 0.318E-03-0.658E-18
CGA:   3    -0.593661657927E+03   -0.46415E-01   -0.46420E-01  1200   0.284E-01 0.159E-04
 gam= 0.160 trial= 0.643  step= 0.506 mean= 0.643
 gam= 0.208 g(H,U,f)=  0.562E-02 0.296E-03 0.276E-19 ort(H,U,f) =-0.442E-03 0.443E-03-0.388E-19
CGA:   4    -0.593668840783E+03   -0.71829E-02   -0.71826E-02  1200   0.591E-02 0.668E-06
 gam= 0.208 trial= 0.636  step= 0.547 mean= 0.636
 gam= 0.217 g(H,U,f)=  0.112E-02 0.159E-03 0.978E-20 ort(H,U,f) =-0.262E-03 0.263E-03-0.117E-19
CGA:   5    -0.593670458541E+03   -0.16178E-02   -0.16178E-02  1200   0.128E-02 0.887E-06
 gam= 0.217 trial= 0.632  step= 0.670 mean= 0.632
 gam= 0.308 g(H,U,f)=  0.351E-03 0.435E-04 0.944E-20 ort(H,U,f) =-0.102E-03 0.102E-03-0.108E-19
CGA:   6    -0.593670887591E+03   -0.42905E-03   -0.42906E-03  1200   0.395E-03-0.462E-06
 gam= 0.308 trial= 0.634  step= 0.724 mean= 0.634
 gam= 0.321 g(H,U,f)=  0.117E-03 0.978E-05 0.271E-20 ort(H,U,f) =-0.319E-04 0.318E-04 0.321E-20
CGA:   7    -0.593671030519E+03   -0.14293E-03   -0.14293E-03  1200   0.127E-03-0.954E-07
 gam= 0.321 trial= 0.638  step= 0.723 mean= 0.638
 gam= 0.251 g(H,U,f)=  0.305E-04 0.131E-05 0.310E-22 ort(H,U,f) =-0.521E-05 0.572E-05 0.406E-21
CGA:   8    -0.593671076344E+03   -0.45825E-04   -0.45804E-04  1200   0.318E-04 0.513E-06
 gam= 0.251 trial= 0.643  step= 0.710 mean= 0.643
 gam= 0.220 g(H,U,f)=  0.680E-05 0.182E-06 0.859E-21 ort(H,U,f) =-0.224E-06 0.409E-06 0.684E-21
CGA:   9    -0.593671087684E+03   -0.11340E-04   -0.11333E-04  1200   0.698E-05 0.185E-06
 gam= 0.220 trial= 0.646  step= 0.738 mean= 0.646
 gam= 0.238 g(H,U,f)=  0.163E-05 0.347E-07 0.186E-22 ort(H,U,f) =-0.500E-07 0.596E-08 0.150E-21
CGA:  10    -0.593671090273E+03   -0.25892E-05   -0.25909E-05  1200   0.167E-05-0.440E-07
 gam= 0.238 trial= 0.650  step= 0.800 mean= 0.650
 final diagonalization
  20 F= -.59367109E+03 E0= -.59367109E+03  d E =-.315103E-02
 curvature:  -7.73 expect dE=-0.106E+00 dE for cont linesearch -0.146E-04
 trial: gam= 1.83021 g(F)=  0.137E-01 g(S)=  0.000E+00 ort =-0.539E-03 (trialstep = 0.703E-01)
 search vector abs. value=  0.527E+00
 bond charge predicted
 wavefunctions rotated
       N       E                     dE             d eps       ncg     rms          ort
 gam= 0.000 g(H,U,f)=  0.362E-01 0.470E-03 0.530E-18 ort(H,U,f) = 0.000E+00 0.000E+00 0.000E+00
SDA:   1    -0.593656510736E+03    0.14577E-01    0.00000E+00  1200   0.367E-01 0.000E+00
 gam= 0.000 trial= 0.658  step= 0.660 mean= 0.658
 gam= 0.294 g(H,U,f)=  0.104E-01 0.330E-03 0.194E-18 ort(H,U,f) = 0.356E-03-0.358E-03-0.203E-18
CGA:   2    -0.593668605591E+03   -0.12095E-01   -0.12095E-01  1200   0.108E-01-0.156E-05
 gam= 0.294 trial= 0.658  step= 0.519 mean= 0.658
 gam= 0.158 g(H,U,f)=  0.166E-02 0.404E-04 0.971E-21 ort(H,U,f) =-0.189E-04 0.195E-04-0.175E-19
CGA:   3    -0.593671397886E+03   -0.27923E-02   -0.27923E-02  1200   0.170E-02 0.517E-06
 gam= 0.158 trial= 0.651  step= 0.504 mean= 0.651
 gam= 0.208 g(H,U,f)=  0.336E-03 0.175E-04 0.194E-21 ort(H,U,f) =-0.256E-04 0.263E-04-0.824E-21
CGA:   4    -0.593671825778E+03   -0.42789E-03   -0.42795E-03  1200   0.354E-03 0.745E-06
 gam= 0.208 trial= 0.644  step= 0.544 mean= 0.644
 gam= 0.214 g(H,U,f)=  0.664E-04 0.939E-05 0.327E-20 ort(H,U,f) =-0.149E-04 0.154E-04-0.898E-22
CGA:   5    -0.593671922044E+03   -0.96265E-04   -0.96292E-04  1200   0.758E-04 0.531E-06
 gam= 0.214 trial= 0.639  step= 0.670 mean= 0.639
 gam= 0.306 g(H,U,f)=  0.206E-04 0.256E-05 0.647E-22 ort(H,U,f) =-0.622E-05 0.598E-05-0.483E-21
CGA:   6    -0.593671947474E+03   -0.25430E-04   -0.25434E-04  1200   0.232E-04-0.246E-06
 gam= 0.306 trial= 0.640  step= 0.731 mean= 0.640
 gam= 0.323 g(H,U,f)=  0.690E-05 0.574E-06 0.122E-22 ort(H,U,f) =-0.202E-05 0.187E-05-0.365E-22
CGA:   7    -0.593671955909E+03   -0.84354E-05   -0.84418E-05  1200   0.748E-05-0.150E-06
 gam= 0.323 trial= 0.645  step= 0.713 mean= 0.645
 gam= 0.246 g(H,U,f)=  0.176E-05 0.762E-07 0.486E-23 ort(H,U,f) =-0.217E-06 0.327E-06-0.297E-24
CGA:   8    -0.593671958563E+03   -0.26538E-05   -0.26493E-05  1200   0.184E-05 0.110E-06
 gam= 0.246 trial= 0.648  step= 0.704 mean= 0.648
 final diagonalization
  21 F= -.59367196E+03 E0= -.59367196E+03  d E =-.868290E-03
 ZBRENT: can't locate minimum, use default step
 trial-energy change:   -0.000868  1 .order   -0.000867   -0.000897   -0.000837
 step:   0.2813(harm=  1.0513)  dis= 0.00976  next Energy=  -593.677797 (dE=-0.671E-02)
 bond charge predicted
 wavefunctions rotated
       N       E                     dE             d eps       ncg     rms          ort
 gam= 0.000 g(H,U,f)=  0.326E+00 0.426E-02 0.356E-17 ort(H,U,f) = 0.000E+00 0.000E+00 0.000E+00
SDA:   1    -0.593535057983E+03    0.13690E+00    0.00000E+00  1200   0.330E+00 0.000E+00
 gam= 0.000 trial= 0.651  step= 0.659 mean= 0.651
 gam= 0.294 g(H,U,f)=  0.940E-01 0.300E-02 0.378E-19 ort(H,U,f) = 0.326E-02-0.325E-02-0.482E-20
CGA:   2    -0.593643958300E+03   -0.10890E+00   -0.10890E+00  1200   0.970E-01 0.835E-05
 gam= 0.294 trial= 0.651  step= 0.519 mean= 0.651
 gam= 0.158 g(H,U,f)=  0.149E-01 0.370E-03 0.228E-19 ort(H,U,f) =-0.183E-03 0.183E-03-0.259E-18
CGA:   3    -0.593669130938E+03   -0.25173E-01   -0.25173E-01  1200   0.153E-01 0.982E-08
 gam= 0.158 trial= 0.645  step= 0.505 mean= 0.645
 gam= 0.208 g(H,U,f)=  0.303E-02 0.161E-03 0.111E-19 ort(H,U,f) =-0.240E-03 0.242E-03-0.140E-19
CGA:   4    -0.593672997264E+03   -0.38663E-02   -0.38664E-02  1200   0.319E-02 0.188E-05
 gam= 0.208 trial= 0.638  step= 0.545 mean= 0.638
 gam= 0.217 g(H,U,f)=  0.605E-03 0.862E-04 0.439E-20 ort(H,U,f) =-0.141E-03 0.142E-03-0.521E-20
CGA:   5    -0.593673866712E+03   -0.86945E-03   -0.86951E-03  1200   0.692E-03 0.146E-05
 gam= 0.217 trial= 0.633  step= 0.667 mean= 0.633
 gam= 0.304 g(H,U,f)=  0.186E-03 0.236E-04 0.322E-20 ort(H,U,f) =-0.561E-04 0.555E-04-0.400E-20
CGA:   6    -0.593674097606E+03   -0.23089E-03   -0.23090E-03  1200   0.210E-03-0.558E-06
 gam= 0.304 trial= 0.635  step= 0.727 mean= 0.635
 gam= 0.320 g(H,U,f)=  0.619E-04 0.535E-05 0.942E-21 ort(H,U,f) =-0.177E-04 0.174E-04 0.107E-20
CGA:   7    -0.593674173918E+03   -0.76311E-04   -0.76326E-04  1200   0.673E-04-0.301E-06
 gam= 0.320 trial= 0.640  step= 0.723 mean= 0.640
 gam= 0.251 g(H,U,f)=  0.162E-04 0.712E-06 0.151E-22 ort(H,U,f) =-0.270E-05 0.306E-05 0.166E-21
CGA:   8    -0.593674198229E+03   -0.24311E-04   -0.24296E-04  1200   0.169E-04 0.362E-06
 gam= 0.251 trial= 0.644  step= 0.710 mean= 0.644
 gam= 0.223 g(H,U,f)=  0.366E-05 0.102E-06 0.292E-21 ort(H,U,f) =-0.875E-07 0.226E-06 0.245E-21
CGA:   9    -0.593674204260E+03   -0.60308E-05   -0.60259E-05  1200   0.376E-05 0.138E-06
 gam= 0.223 trial= 0.647  step= 0.739 mean= 0.647
 gam= 0.242 g(H,U,f)=  0.892E-06 0.192E-07 0.802E-23 ort(H,U,f) =-0.328E-07-0.414E-09 0.579E-22
CGA:  10    -0.593674205660E+03   -0.13998E-05   -0.14015E-05  1200   0.911E-06-0.332E-07
 gam= 0.242 trial= 0.652  step= 0.796 mean= 0.652
 final diagonalization
  22 F= -.59367421E+03 E0= -.59367421E+03  d E =-.311539E-02
 curvature:  -8.33 expect dE=-0.854E-01 dE for cont linesearch -0.139E-02
 ZBRENT: increasing intervall
 opt :   0.7034  next Energy=  -593.677090 (dE=-0.600E-02)
 bond charge predicted
 wavefunctions rotated
       N       E                     dE             d eps       ncg     rms          ort
 gam= 0.000 g(H,U,f)=  0.131E+01 0.171E-01 0.660E-17 ort(H,U,f) = 0.000E+00 0.000E+00 0.000E+00
SDA:   1    -0.593120106659E+03    0.55410E+00    0.00000E+00  1200   0.132E+01 0.000E+00
 gam= 0.000 trial= 0.659  step= 0.659 mean= 0.659
 gam= 0.294 g(H,U,f)=  0.377E+00 0.122E-01 0.837E-17 ort(H,U,f) = 0.131E-01-0.131E-01-0.705E-17
CGA:   2    -0.593555796458E+03   -0.43569E+00   -0.43569E+00  1200   0.389E+00 0.373E-04
 gam= 0.294 trial= 0.659  step= 0.518 mean= 0.659
 gam= 0.158 g(H,U,f)=  0.601E-01 0.154E-02 0.167E-18 ort(H,U,f) =-0.777E-03 0.801E-03-0.126E-17
CGA:   3    -0.593656600228E+03   -0.10080E+00   -0.10081E+00  1200   0.616E-01 0.244E-04
 gam= 0.158 trial= 0.652  step= 0.506 mean= 0.652
 gam= 0.209 g(H,U,f)=  0.122E-01 0.671E-03 0.118E-18 ort(H,U,f) =-0.101E-02 0.101E-02-0.437E-19
CGA:   4    -0.593672185750E+03   -0.15586E-01   -0.15585E-01  1200   0.129E-01 0.209E-06
 gam= 0.209 trial= 0.645  step= 0.547 mean= 0.645
 gam= 0.217 g(H,U,f)=  0.244E-02 0.359E-03 0.223E-19 ort(H,U,f) =-0.593E-03 0.595E-03 0.488E-19
CGA:   5    -0.593675700528E+03   -0.35148E-02   -0.35149E-02  1200   0.280E-02 0.210E-05
 gam= 0.217 trial= 0.640  step= 0.669 mean= 0.640
 gam= 0.306 g(H,U,f)=  0.756E-03 0.982E-04 0.353E-19 ort(H,U,f) =-0.232E-03 0.232E-03 0.302E-19
CGA:   6    -0.593676635785E+03   -0.93526E-03   -0.93526E-03  1200   0.854E-03-0.580E-06
 gam= 0.306 trial= 0.641  step= 0.727 mean= 0.641
 gam= 0.320 g(H,U,f)=  0.251E-03 0.223E-04 0.105E-19 ort(H,U,f) =-0.730E-04 0.729E-04 0.239E-19
CGA:   7    -0.593676946355E+03   -0.31057E-03   -0.31057E-03  1200   0.273E-03-0.814E-07
 gam= 0.320 trial= 0.645  step= 0.725 mean= 0.645
 gam= 0.252 g(H,U,f)=  0.659E-04 0.295E-05 0.127E-20 ort(H,U,f) =-0.120E-04 0.128E-04 0.648E-20
CGA:   8    -0.593677045465E+03   -0.99109E-04   -0.99076E-04  1200   0.688E-04 0.818E-06
 gam= 0.252 trial= 0.649  step= 0.712 mean= 0.649
 gam= 0.222 g(H,U,f)=  0.148E-04 0.422E-06 0.940E-21 ort(H,U,f) =-0.644E-06 0.940E-06 0.248E-20
CGA:   9    -0.593677070056E+03   -0.24591E-04   -0.24582E-04  1200   0.153E-04 0.296E-06
 gam= 0.222 trial= 0.653  step= 0.736 mean= 0.653
 gam= 0.238 g(H,U,f)=  0.355E-05 0.819E-07 0.619E-22 ort(H,U,f) =-0.776E-07 0.744E-08 0.387E-21
CGA:  10    -0.593677075692E+03   -0.56363E-05   -0.56391E-05  1200   0.363E-05-0.701E-07
 gam= 0.238 trial= 0.657  step= 0.792 mean= 0.657
 gam= 0.260 g(H,U,f)=  0.916E-06 0.286E-07 0.251E-22 ort(H,U,f) =-0.439E-07 0.531E-08 0.989E-22
CGA:  11    -0.593677077121E+03   -0.14290E-05   -0.14317E-05  1200   0.944E-06-0.385E-07
 gam= 0.260 trial= 0.663  step= 0.761 mean= 0.663
 final diagonalization
  23 F= -.59367708E+03 E0= -.59367708E+03  d E =-.598685E-02
 curvature: -17.30 expect dE=-0.227E+00 dE for cont linesearch -0.575E-03
 ZBRENT: increasing intervall
 opt :   1.5474  next Energy=  -593.676229 (dE=-0.514E-02)
 bond charge predicted
 wavefunctions rotated
       N       E                     dE             d eps       ncg     rms          ort
 gam= 0.000 g(H,U,f)=  0.523E+01 0.698E-01 0.277E-14 ort(H,U,f) = 0.000E+00 0.000E+00 0.000E+00
SDA:   1    -0.591446413841E+03    0.22307E+01    0.00000E+00  1200   0.530E+01 0.000E+00
 gam= 0.000 trial= 0.668  step= 0.657 mean= 0.668
 gam= 0.296 g(H,U,f)=  0.152E+01 0.506E-01 0.168E-14 ort(H,U,f) = 0.524E-01-0.530E-01-0.150E-14
CGA:   2    -0.593187740502E+03   -0.17413E+01   -0.17413E+01  1200   0.157E+01-0.592E-03
 gam= 0.296 trial= 0.668  step= 0.517 mean= 0.668
 gam= 0.159 g(H,U,f)=  0.243E+00 0.680E-02 0.189E-17 ort(H,U,f) =-0.340E-02 0.408E-02-0.863E-17
CGA:   3    -0.593592254499E+03   -0.40451E+00   -0.40475E+00  1200   0.250E+00 0.679E-03
 gam= 0.159 trial= 0.660  step= 0.509 mean= 0.660
 gam= 0.209 g(H,U,f)=  0.493E-01 0.301E-02 0.181E-17 ort(H,U,f) =-0.462E-02 0.459E-02 0.273E-18
CGA:   4    -0.593655929360E+03   -0.63675E-01   -0.63665E-01  1200   0.523E-01-0.313E-04
 gam= 0.209 trial= 0.653  step= 0.552 mean= 0.653
 gam= 0.221 g(H,U,f)=  0.996E-02 0.159E-02 0.158E-17 ort(H,U,f) =-0.268E-02 0.268E-02 0.164E-17
CGA:   5    -0.593670350890E+03   -0.14422E-01   -0.14422E-01  1200   0.116E-01 0.122E-05
 gam= 0.221 trial= 0.648  step= 0.674 mean= 0.648
 gam= 0.312 g(H,U,f)=  0.317E-02 0.437E-03 0.295E-18 ort(H,U,f) =-0.104E-02 0.104E-02 0.599E-18
CGA:   6    -0.593674247944E+03   -0.38971E-02   -0.38970E-02  1200   0.360E-02 0.105E-05
 gam= 0.312 trial= 0.649  step= 0.728 mean= 0.649
 gam= 0.320 g(H,U,f)=  0.106E-02 0.977E-04 0.773E-19 ort(H,U,f) =-0.326E-03 0.328E-03 0.228E-18
CGA:   7    -0.593675559323E+03   -0.13114E-02   -0.13113E-02  1200   0.115E-02 0.168E-05
 gam= 0.320 trial= 0.653  step= 0.724 mean= 0.653
 gam= 0.251 g(H,U,f)=  0.277E-03 0.128E-04 0.151E-19 ort(H,U,f) =-0.555E-04 0.575E-04 0.650E-19
CGA:   8    -0.593675977467E+03   -0.41814E-03   -0.41807E-03  1200   0.289E-03 0.196E-05
 gam= 0.251 trial= 0.656  step= 0.714 mean= 0.656
 gam= 0.219 g(H,U,f)=  0.615E-04 0.189E-05 0.156E-20 ort(H,U,f) =-0.367E-05 0.433E-05 0.997E-20
CGA:   9    -0.593676080935E+03   -0.10347E-03   -0.10345E-03  1200   0.634E-04 0.664E-06
 gam= 0.219 trial= 0.659  step= 0.735 mean= 0.659
 gam= 0.235 g(H,U,f)=  0.145E-04 0.389E-06 0.297E-21 ort(H,U,f) =-0.316E-06 0.150E-06 0.167E-20
CGA:  10    -0.593676104297E+03   -0.23361E-04   -0.23367E-04  1200   0.149E-04-0.166E-06
 gam= 0.235 trial= 0.663  step= 0.789 mean= 0.663
 gam= 0.260 g(H,U,f)=  0.374E-05 0.135E-06 0.231E-22 ort(H,U,f) =-0.146E-06 0.586E-07 0.195E-21
CGA:  11    -0.593676110153E+03   -0.58561E-05   -0.58618E-05  1200   0.387E-05-0.874E-07
 gam= 0.260 trial= 0.669  step= 0.785 mean= 0.669
 gam= 0.253 g(H,U,f)=  0.926E-06 0.516E-07 0.424E-24 ort(H,U,f) = 0.508E-07 0.667E-07-0.982E-23
CGA:  12    -0.593676111671E+03   -0.15180E-05   -0.15116E-05  1200   0.978E-06 0.118E-06
 gam= 0.253 trial= 0.675  step= 0.815 mean= 0.675
 final diagonalization
  24 F= -.59367611E+03 E0= -.59367611E+03  d E =-.502140E-02
 curvature:  25.52 expect dE= 0.128E+01 dE for cont linesearch  0.215E-02
 ZBRENT: bracketing found
 ZBRENT: interpolating
 opt :   1.0289  next Energy=  -593.677758 (dE=-0.667E-02)
 bond charge predicted
 wavefunctions rotated
       N       E                     dE             d eps       ncg     rms          ort
 gam= 0.000 g(H,U,f)=  0.199E+01 0.253E-01 0.429E-18 ort(H,U,f) = 0.000E+00 0.000E+00 0.000E+00
SDA:   1    -0.592831957880E+03    0.84415E+00    0.00000E+00  1200   0.201E+01 0.000E+00
 gam= 0.000 trial= 0.682  step= 0.658 mean= 0.682
 gam= 0.293 g(H,U,f)=  0.574E+00 0.168E-01 0.503E-15 ort(H,U,f) = 0.182E-01-0.183E-01-0.476E-15
CGA:   2    -0.593494136066E+03   -0.66218E+00   -0.66217E+00  1200   0.590E+00-0.114E-03
 gam= 0.293 trial= 0.681  step= 0.518 mean= 0.681
 gam= 0.158 g(H,U,f)=  0.911E-01 0.212E-02 0.398E-18 ort(H,U,f) =-0.833E-03 0.103E-02-0.101E-17
CGA:   3    -0.593647090595E+03   -0.15295E+00   -0.15299E+00  1200   0.932E-01 0.195E-03
 gam= 0.158 trial= 0.673  step= 0.502 mean= 0.673
 gam= 0.209 g(H,U,f)=  0.185E-01 0.925E-03 0.355E-18 ort(H,U,f) =-0.139E-02 0.139E-02 0.179E-18
CGA:   4    -0.593670503147E+03   -0.23413E-01   -0.23412E-01  1200   0.195E-01 0.628E-05
 gam= 0.209 trial= 0.664  step= 0.542 mean= 0.664
 gam= 0.213 g(H,U,f)=  0.364E-02 0.496E-03 0.667E-18 ort(H,U,f) =-0.814E-03 0.813E-03 0.520E-18
CGA:   5    -0.593675782462E+03   -0.52793E-02   -0.52794E-02  1200   0.414E-02-0.677E-06
 gam= 0.213 trial= 0.658  step= 0.663 mean= 0.658
 gam= 0.296 g(H,U,f)=  0.109E-02 0.138E-03 0.101E-18 ort(H,U,f) =-0.318E-03 0.322E-03 0.250E-18
CGA:   6    -0.593677154531E+03   -0.13721E-02   -0.13721E-02  1200   0.123E-02 0.374E-05
 gam= 0.296 trial= 0.658  step= 0.725 mean= 0.658
 gam= 0.317 g(H,U,f)=  0.357E-03 0.315E-04 0.281E-19 ort(H,U,f) =-0.994E-04 0.101E-03 0.929E-19
CGA:   7    -0.593677599116E+03   -0.44459E-03   -0.44452E-03  1200   0.389E-03 0.202E-05
 gam= 0.317 trial= 0.662  step= 0.731 mean= 0.662
 gam= 0.257 g(H,U,f)=  0.955E-04 0.441E-05 0.702E-20 ort(H,U,f) =-0.190E-04 0.185E-04 0.281E-19
CGA:   8    -0.593677741274E+03   -0.14216E-03   -0.14218E-03  1200   0.999E-04-0.475E-06
 gam= 0.257 trial= 0.665  step= 0.714 mean= 0.665
 gam= 0.225 g(H,U,f)=  0.219E-04 0.613E-06 0.361E-21 ort(H,U,f) =-0.141E-05 0.130E-05 0.318E-20
CGA:   9    -0.593677776860E+03   -0.35586E-04   -0.35588E-04  1200   0.225E-04-0.112E-06
 gam= 0.225 trial= 0.668  step= 0.725 mean= 0.668
 gam= 0.233 g(H,U,f)=  0.514E-05 0.108E-06 0.728E-22 ort(H,U,f) = 0.128E-06-0.185E-07 0.483E-21
CGA:  10    -0.593677785008E+03   -0.81485E-05   -0.81456E-05  1200   0.525E-05 0.110E-06
 gam= 0.233 trial= 0.671  step= 0.775 mean= 0.671
 gam= 0.251 g(H,U,f)=  0.128E-05 0.351E-07 0.526E-24 ort(H,U,f) = 0.588E-07-0.322E-08-0.156E-22
CGA:  11    -0.593677787055E+03   -0.20469E-05   -0.20442E-05  1200   0.132E-05 0.556E-07
 gam= 0.251 trial= 0.676  step= 0.856 mean= 0.676
 final diagonalization
  25 F= -.59367779E+03 E0= -.59367779E+03  d E =-.669678E-02
 curvature:  -8.08 expect dE=-0.180E+00 dE for cont linesearch -0.393E-06
 trial: gam= 1.35975 g(F)=  0.222E-01 g(S)=  0.000E+00 ort = 0.160E-03 (trialstep = 0.139E+00)
 search vector abs. value=  0.996E+00
 bond charge predicted
 wavefunctions rotated
       N       E                     dE             d eps       ncg     rms          ort
 gam= 0.000 g(H,U,f)=  0.287E+00 0.329E-02 0.487E-18 ort(H,U,f) = 0.000E+00 0.000E+00 0.000E+00
SDA:   1    -0.593558045517E+03    0.11974E+00    0.00000E+00  1200   0.291E+00 0.000E+00
 gam= 0.000 trial= 0.685  step= 0.659 mean= 0.685
 gam= 0.293 g(H,U,f)=  0.828E-01 0.230E-02 0.724E-18 ort(H,U,f) = 0.246E-02-0.246E-02-0.562E-18
CGA:   2    -0.593653849690E+03   -0.95804E-01   -0.95804E-01  1200   0.851E-01 0.150E-05
 gam= 0.293 trial= 0.684  step= 0.519 mean= 0.684
 gam= 0.158 g(H,U,f)=  0.131E-01 0.316E-03 0.681E-20 ort(H,U,f) =-0.117E-03 0.119E-03-0.585E-19
CGA:   3    -0.593675933273E+03   -0.22084E-01   -0.22085E-01  1200   0.134E-01 0.143E-05
 gam= 0.158 trial= 0.675  step= 0.505 mean= 0.675
 gam= 0.205 g(H,U,f)=  0.262E-02 0.134E-03 0.609E-20 ort(H,U,f) =-0.199E-03 0.201E-03-0.342E-20
CGA:   4    -0.593679326678E+03   -0.33934E-02   -0.33935E-02  1200   0.275E-02 0.185E-05
 gam= 0.205 trial= 0.667  step= 0.547 mean= 0.667
 gam= 0.213 g(H,U,f)=  0.515E-03 0.713E-04 0.814E-21 ort(H,U,f) =-0.116E-03 0.117E-03 0.199E-20
CGA:   5    -0.593680079369E+03   -0.75269E-03   -0.75277E-03  1200   0.586E-03 0.133E-05
 gam= 0.213 trial= 0.661  step= 0.668 mean= 0.661
 gam= 0.299 g(H,U,f)=  0.156E-03 0.197E-04 0.143E-20 ort(H,U,f) =-0.458E-04 0.458E-04 0.110E-20
CGA:   6    -0.593680275134E+03   -0.19576E-03   -0.19576E-03  1200   0.175E-03 0.897E-08
 gam= 0.299 trial= 0.661  step= 0.726 mean= 0.661
 gam= 0.319 g(H,U,f)=  0.515E-04 0.437E-05 0.515E-21 ort(H,U,f) =-0.140E-04 0.141E-04 0.104E-20
CGA:   7    -0.593680338759E+03   -0.63625E-04   -0.63621E-04  1200   0.559E-04 0.120E-06
 gam= 0.319 trial= 0.664  step= 0.724 mean= 0.664
 gam= 0.252 g(H,U,f)=  0.135E-04 0.625E-06 0.618E-22 ort(H,U,f) =-0.226E-05 0.259E-05 0.297E-21
CGA:   8    -0.593680359015E+03   -0.20256E-04   -0.20246E-04  1200   0.141E-04 0.330E-06
 gam= 0.252 trial= 0.667  step= 0.712 mean= 0.667
 gam= 0.223 g(H,U,f)=  0.306E-05 0.829E-07 0.332E-22 ort(H,U,f) =-0.377E-07 0.160E-06 0.992E-22
CGA:   9    -0.593680364060E+03   -0.50459E-05   -0.50430E-05  1200   0.314E-05 0.122E-06
 gam= 0.223 trial= 0.670  step= 0.745 mean= 0.670
 gam= 0.241 g(H,U,f)=  0.742E-06 0.153E-07 0.408E-23 ort(H,U,f) =-0.402E-07-0.215E-08 0.194E-22
CGA:  10    -0.593680365237E+03   -0.11768E-05   -0.11786E-05  1200   0.757E-06-0.423E-07
 gam= 0.241 trial= 0.673  step= 0.834 mean= 0.673
 final diagonalization
  26 F= -.59368037E+03 E0= -.59368037E+03  d E =-.257818E-02
 trial-energy change:   -0.002578  1 .order   -0.002587   -0.003111   -0.002063
 step:   0.4115(harm=  0.4115)  dis= 0.01786  next Energy=  -593.682407 (dE=-0.462E-02)
 bond charge predicted
 wavefunctions rotated
       N       E                     dE             d eps       ncg     rms          ort
 gam= 0.000 g(H,U,f)=  0.112E+01 0.128E-01 0.666E-18 ort(H,U,f) = 0.000E+00 0.000E+00 0.000E+00
SDA:   1    -0.593206763349E+03    0.47360E+00    0.00000E+00  1200   0.113E+01 0.000E+00
 gam= 0.000 trial= 0.681  step= 0.659 mean= 0.681
 gam= 0.294 g(H,U,f)=  0.323E+00 0.903E-02 0.133E-16 ort(H,U,f) = 0.949E-02-0.958E-02-0.114E-16
CGA:   2    -0.593579110014E+03   -0.37235E+00   -0.37235E+00  1200   0.332E+00-0.907E-04
 gam= 0.294 trial= 0.680  step= 0.518 mean= 0.680
 gam= 0.158 g(H,U,f)=  0.512E-01 0.124E-02 0.642E-19 ort(H,U,f) =-0.452E-03 0.488E-03-0.344E-18
CGA:   3    -0.593665059333E+03   -0.85949E-01   -0.85968E-01  1200   0.524E-01 0.358E-04
 gam= 0.158 trial= 0.672  step= 0.506 mean= 0.672
 gam= 0.204 g(H,U,f)=  0.102E-01 0.532E-03 0.683E-19 ort(H,U,f) =-0.796E-03 0.797E-03-0.227E-20
CGA:   4    -0.593678342652E+03   -0.13283E-01   -0.13283E-01  1200   0.107E-01 0.615E-06
 gam= 0.204 trial= 0.664  step= 0.549 mean= 0.664
 gam= 0.214 g(H,U,f)=  0.201E-02 0.283E-03 0.654E-19 ort(H,U,f) =-0.462E-03 0.464E-03 0.679E-19
CGA:   5    -0.593681283940E+03   -0.29413E-02   -0.29414E-02  1200   0.229E-02 0.214E-05
 gam= 0.214 trial= 0.658  step= 0.669 mean= 0.658
 gam= 0.301 g(H,U,f)=  0.611E-03 0.779E-04 0.173E-19 ort(H,U,f) =-0.181E-03 0.182E-03 0.352E-19
CGA:   6    -0.593682049755E+03   -0.76581E-03   -0.76581E-03  1200   0.688E-03 0.567E-06
 gam= 0.301 trial= 0.659  step= 0.727 mean= 0.659
 gam= 0.320 g(H,U,f)=  0.203E-03 0.174E-04 0.608E-20 ort(H,U,f) =-0.556E-04 0.563E-04 0.162E-19
CGA:   7    -0.593682300171E+03   -0.25042E-03   -0.25039E-03  1200   0.220E-03 0.675E-06
 gam= 0.320 trial= 0.662  step= 0.726 mean= 0.662
 gam= 0.253 g(H,U,f)=  0.534E-04 0.246E-05 0.131E-20 ort(H,U,f) =-0.950E-05 0.103E-04 0.535E-20
CGA:   8    -0.593682380223E+03   -0.80052E-04   -0.80029E-04  1200   0.558E-04 0.752E-06
 gam= 0.253 trial= 0.665  step= 0.714 mean= 0.665
 gam= 0.223 g(H,U,f)=  0.121E-04 0.334E-06 0.104E-21 ort(H,U,f) =-0.342E-06 0.609E-06 0.747E-21
CGA:   9    -0.593682400226E+03   -0.20003E-04   -0.19996E-04  1200   0.124E-04 0.267E-06
 gam= 0.223 trial= 0.668  step= 0.740 mean= 0.668
 gam= 0.238 g(H,U,f)=  0.289E-05 0.644E-07 0.364E-22 ort(H,U,f) =-0.825E-07-0.782E-08 0.160E-21
CGA:  10    -0.593682404847E+03   -0.46214E-05   -0.46248E-05  1200   0.296E-05-0.903E-07
 gam= 0.238 trial= 0.671  step= 0.813 mean= 0.671
 final diagonalization
  27 F= -.59368240E+03 E0= -.59368240E+03  d E =-.461779E-02
 curvature:  -9.13 expect dE=-0.113E+00 dE for cont linesearch -0.147E-06
 trial: gam= 0.60154 g(F)=  0.124E-01 g(S)=  0.000E+00 ort = 0.127E-03 (trialstep = 0.193E+00)
 search vector abs. value=  0.373E+00
 bond charge predicted
 wavefunctions rotated
       N       E                     dE             d eps       ncg     rms          ort
 gam= 0.000 g(H,U,f)=  0.207E+00 0.283E-02 0.123E-19 ort(H,U,f) = 0.000E+00 0.000E+00 0.000E+00
SDA:   1    -0.593595603790E+03    0.86796E-01    0.00000E+00  1200   0.210E+00 0.000E+00
 gam= 0.000 trial= 0.678  step= 0.661 mean= 0.678
 gam= 0.298 g(H,U,f)=  0.608E-01 0.188E-02 0.129E-17 ort(H,U,f) = 0.208E-02-0.208E-02-0.115E-17
CGA:   2    -0.593665135319E+03   -0.69532E-01   -0.69532E-01  1200   0.627E-01-0.145E-05
 gam= 0.298 trial= 0.678  step= 0.514 mean= 0.678
 gam= 0.158 g(H,U,f)=  0.964E-02 0.235E-03 0.468E-20 ort(H,U,f) =-0.921E-04 0.898E-04-0.119E-19
CGA:   3    -0.593681242891E+03   -0.16108E-01   -0.16108E-01  1200   0.988E-02-0.236E-05
 gam= 0.158 trial= 0.669  step= 0.504 mean= 0.669
 gam= 0.206 g(H,U,f)=  0.193E-02 0.103E-03 0.423E-20 ort(H,U,f) =-0.146E-03 0.148E-03 0.207E-20
CGA:   4    -0.593683733605E+03   -0.24907E-02   -0.24909E-02  1200   0.203E-02 0.182E-05
 gam= 0.206 trial= 0.661  step= 0.547 mean= 0.661
 gam= 0.213 g(H,U,f)=  0.379E-03 0.540E-04 0.645E-20 ort(H,U,f) =-0.878E-04 0.883E-04 0.572E-20
CGA:   5    -0.593684289163E+03   -0.55556E-03   -0.55558E-03  1200   0.433E-03 0.474E-06
 gam= 0.213 trial= 0.655  step= 0.666 mean= 0.655
 gam= 0.299 g(H,U,f)=  0.115E-03 0.147E-04 0.838E-21 ort(H,U,f) =-0.348E-04 0.345E-04 0.249E-20
CGA:   6    -0.593684433517E+03   -0.14435E-03   -0.14436E-03  1200   0.129E-03-0.284E-06
 gam= 0.299 trial= 0.656  step= 0.728 mean= 0.656
 gam= 0.318 g(H,U,f)=  0.377E-04 0.346E-05 0.331E-21 ort(H,U,f) =-0.109E-04 0.109E-04 0.984E-21
CGA:   7    -0.593684480587E+03   -0.47070E-04   -0.47070E-04  1200   0.411E-04 0.130E-08
 gam= 0.318 trial= 0.660  step= 0.724 mean= 0.660
 gam= 0.254 g(H,U,f)=  0.100E-04 0.456E-06 0.119E-21 ort(H,U,f) =-0.168E-05 0.190E-05 0.389E-21
CGA:   8    -0.593684495478E+03   -0.14891E-04   -0.14884E-04  1200   0.105E-04 0.224E-06
 gam= 0.254 trial= 0.663  step= 0.711 mean= 0.663
 gam= 0.223 g(H,U,f)=  0.227E-05 0.661E-07 0.649E-26 ort(H,U,f) =-0.445E-07 0.149E-06-0.673E-24
CGA:   9    -0.593684499219E+03   -0.37411E-05   -0.37384E-05  1200   0.234E-05 0.104E-06
 gam= 0.223 trial= 0.665  step= 0.751 mean= 0.665
 final diagonalization
  28 F= -.59368450E+03 E0= -.59368450E+03  d E =-.209437E-02
 trial-energy change:   -0.002094  1 .order   -0.002095   -0.002415   -0.001776
 step:   0.7297(harm=  0.7297)  dis= 0.01853  next Energy=  -593.686967 (dE=-0.456E-02)
 bond charge predicted
 wavefunctions rotated
       N       E                     dE             d eps       ncg     rms          ort
 gam= 0.000 g(H,U,f)=  0.160E+01 0.225E-01 0.247E-19 ort(H,U,f) = 0.000E+00 0.000E+00 0.000E+00
SDA:   1    -0.593000102029E+03    0.68439E+00    0.00000E+00  1200   0.163E+01 0.000E+00
 gam= 0.000 trial= 0.669  step= 0.660 mean= 0.669
 gam= 0.299 g(H,U,f)=  0.471E+00 0.146E-01 0.351E-16 ort(H,U,f) = 0.161E-01-0.163E-01-0.325E-16
CGA:   2    -0.593536918033E+03   -0.53682E+00   -0.53681E+00  1200   0.486E+00-0.176E-03
 gam= 0.299 trial= 0.669  step= 0.513 mean= 0.669
 gam= 0.158 g(H,U,f)=  0.749E-01 0.189E-02 0.161E-18 ort(H,U,f) =-0.683E-03 0.753E-03-0.217E-18
CGA:   3    -0.593661611624E+03   -0.12469E+00   -0.12472E+00  1200   0.768E-01 0.696E-04
 gam= 0.158 trial= 0.661  step= 0.505 mean= 0.661
 gam= 0.205 g(H,U,f)=  0.149E-01 0.818E-03 0.134E-18 ort(H,U,f) =-0.118E-02 0.119E-02 0.920E-19
CGA:   4    -0.593681008819E+03   -0.19397E-01   -0.19397E-01  1200   0.158E-01 0.269E-05
 gam= 0.205 trial= 0.653  step= 0.549 mean= 0.653
 gam= 0.215 g(H,U,f)=  0.295E-02 0.432E-03 0.332E-18 ort(H,U,f) =-0.706E-03 0.707E-03 0.243E-18
CGA:   5    -0.593685332226E+03   -0.43234E-02   -0.43235E-02  1200   0.338E-02 0.930E-06
 gam= 0.215 trial= 0.648  step= 0.667 mean= 0.648
 gam= 0.300 g(H,U,f)=  0.897E-03 0.119E-03 0.374E-19 ort(H,U,f) =-0.279E-03 0.279E-03 0.119E-18
CGA:   6    -0.593686461574E+03   -0.11293E-02   -0.11293E-02  1200   0.102E-02 0.144E-06
 gam= 0.300 trial= 0.649  step= 0.728 mean= 0.649
 gam= 0.318 g(H,U,f)=  0.295E-03 0.282E-04 0.120E-19 ort(H,U,f) =-0.882E-04 0.890E-04 0.402E-19
CGA:   7    -0.593686831563E+03   -0.36999E-03   -0.36996E-03  1200   0.324E-03 0.731E-06
 gam= 0.318 trial= 0.653  step= 0.727 mean= 0.653
 gam= 0.256 g(H,U,f)=  0.790E-04 0.373E-05 0.466E-20 ort(H,U,f) =-0.150E-04 0.158E-04 0.158E-19
CGA:   8    -0.593686949341E+03   -0.11778E-03   -0.11775E-03  1200   0.827E-04 0.778E-06
 gam= 0.256 trial= 0.657  step= 0.714 mean= 0.657
 gam= 0.222 g(H,U,f)=  0.178E-04 0.547E-06 0.220E-24 ort(H,U,f) =-0.920E-06 0.127E-05-0.534E-22
CGA:   9    -0.593686978955E+03   -0.29614E-04   -0.29605E-04  1200   0.184E-04 0.346E-06
 gam= 0.222 trial= 0.660  step= 0.741 mean= 0.660
 gam= 0.241 g(H,U,f)=  0.432E-05 0.106E-06 0.615E-22 ort(H,U,f) =-0.114E-06 0.371E-08 0.219E-21
CGA:  10    -0.593686985796E+03   -0.68404E-05   -0.68450E-05  1200   0.443E-05-0.111E-06
 gam= 0.241 trial= 0.664  step= 0.798 mean= 0.664
 gam= 0.261 g(H,U,f)=  0.112E-05 0.367E-07 0.173E-24 ort(H,U,f) =-0.729E-07 0.294E-08-0.573E-23
CGA:  11    -0.593686987547E+03   -0.17517E-05   -0.17566E-05  1200   0.116E-05-0.700E-07
 gam= 0.261 trial= 0.670  step= 0.766 mean= 0.670
 final diagonalization
  29 F= -.59368699E+03 E0= -.59368699E+03  d E =-.458270E-02
 curvature: -10.88 expect dE=-0.111E+00 dE for cont linesearch -0.105E-06
 trial: gam= 0.80739 g(F)=  0.102E-01 g(S)=  0.000E+00 ort = 0.599E-04 (trialstep = 0.300E+00)
 search vector abs. value=  0.253E+00
 bond charge predicted
 wavefunctions rotated
       N       E                     dE             d eps       ncg     rms          ort
 gam= 0.000 g(H,U,f)=  0.394E+00 0.426E-02 0.488E-18 ort(H,U,f) = 0.000E+00 0.000E+00 0.000E+00
SDA:   1    -0.593519255510E+03    0.16773E+00    0.00000E+00  1200   0.399E+00 0.000E+00
 gam= 0.000 trial= 0.675  step= 0.664 mean= 0.675
 gam= 0.298 g(H,U,f)=  0.115E+00 0.344E-02 0.526E-17 ort(H,U,f) = 0.339E-02-0.339E-02-0.431E-17
CGA:   2    -0.593651573581E+03   -0.13232E+00   -0.13232E+00  1200   0.119E+00 0.345E-05
 gam= 0.298 trial= 0.675  step= 0.512 mean= 0.675
 gam= 0.157 g(H,U,f)=  0.181E-01 0.644E-03 0.970E-20 ort(H,U,f) =-0.156E-03 0.158E-03 0.440E-19
CGA:   3    -0.593681996751E+03   -0.30423E-01   -0.30425E-01  1200   0.187E-01 0.205E-05
 gam= 0.157 trial= 0.667  step= 0.512 mean= 0.667
 gam= 0.204 g(H,U,f)=  0.362E-02 0.199E-03 0.932E-20 ort(H,U,f) =-0.334E-03 0.336E-03 0.155E-19
CGA:   4    -0.593686786841E+03   -0.47901E-02   -0.47901E-02  1200   0.382E-02 0.160E-05
 gam= 0.204 trial= 0.659  step= 0.557 mean= 0.659
 gam= 0.220 g(H,U,f)=  0.732E-03 0.107E-03 0.368E-19 ort(H,U,f) =-0.181E-03 0.181E-03 0.253E-19
CGA:   5    -0.593687849131E+03   -0.10623E-02   -0.10623E-02  1200   0.839E-03 0.500E-06
 gam= 0.220 trial= 0.654  step= 0.674 mean= 0.654
 gam= 0.303 g(H,U,f)=  0.223E-03 0.319E-04 0.117E-20 ort(H,U,f) =-0.722E-04 0.718E-04 0.698E-20
CGA:   6    -0.593688131943E+03   -0.28281E-03   -0.28282E-03  1200   0.255E-03-0.389E-06
 gam= 0.303 trial= 0.655  step= 0.737 mean= 0.655
 gam= 0.322 g(H,U,f)=  0.764E-04 0.561E-05 0.494E-21 ort(H,U,f) =-0.189E-04 0.191E-04 0.212E-20
CGA:   7    -0.593688225683E+03   -0.93740E-04   -0.93733E-04  1200   0.820E-04 0.166E-06
 gam= 0.322 trial= 0.659  step= 0.722 mean= 0.659
 gam= 0.251 g(H,U,f)=  0.198E-04 0.838E-06 0.282E-21 ort(H,U,f) =-0.307E-05 0.355E-05 0.902E-21
CGA:   8    -0.593688255314E+03   -0.29630E-04   -0.29615E-04  1200   0.206E-04 0.483E-06
 gam= 0.251 trial= 0.662  step= 0.713 mean= 0.662
 gam= 0.224 g(H,U,f)=  0.450E-05 0.127E-06 0.513E-22 ort(H,U,f) = 0.186E-08 0.120E-06-0.214E-21
CGA:   9    -0.593688262711E+03   -0.73970E-05   -0.73939E-05  1200   0.463E-05 0.122E-06
 gam= 0.224 trial= 0.665  step= 0.750 mean= 0.665
 gam= 0.241 g(H,U,f)=  0.109E-05 0.243E-07 0.270E-23 ort(H,U,f) =-0.392E-07-0.132E-07-0.751E-24
CGA:  10    -0.593688264453E+03   -0.17427E-05   -0.17447E-05  1200   0.111E-05-0.524E-07
 gam= 0.241 trial= 0.669  step= 0.808 mean= 0.669
 final diagonalization
  30 F= -.59368826E+03 E0= -.59368826E+03  d E =-.127691E-02
 trial-energy change:   -0.001277  1 .order   -0.001267   -0.003066    0.000532
 step:   0.2560(harm=  0.2560)  dis= 0.00494  next Energy=  -593.688294 (dE=-0.131E-02)
 bond charge predicted
[...]
 gam= 0.195 trial= 0.624  step= 0.661 mean= 0.624
 gam= 0.269 g(H,U,f)=  0.219E-05 0.379E-06 0.140E-22 ort(H,U,f) =-0.869E-06 0.880E-06 0.164E-22
CGA:   6    -0.593744318789E+03   -0.31616E-05   -0.31613E-05  1200   0.257E-05 0.114E-07
 gam= 0.269 trial= 0.626  step= 0.718 mean= 0.626
 gam= 0.310 g(H,U,f)=  0.705E-06 0.925E-07 0.298E-22 ort(H,U,f) =-0.260E-06 0.284E-06 0.269E-22
CGA:   7    -0.593744319713E+03   -0.92423E-06   -0.92323E-06  1200   0.797E-06 0.239E-07
 gam= 0.310 trial= 0.630  step= 0.743 mean= 0.630
 gam= 0.265 g(H,U,f)=  0.197E-06 0.144E-07 0.180E-23 ort(H,U,f) =-0.588E-07 0.619E-07 0.935E-23
CGA:   8    -0.593744320012E+03   -0.29899E-06   -0.29892E-06  1200   0.212E-06 0.308E-08
 gam= 0.265 trial= 0.636  step= 0.719 mean= 0.636
 final diagonalization
 399 F= -.59374432E+03 E0= -.59374432E+03  d E =-.280575E-04
 trial-energy change:   -0.000028  1 .order   -0.000028   -0.000047   -0.000009
 step:   0.3213(harm=  0.3213)  dis= 0.00135  next Energy=  -593.744321 (dE=-0.291E-04)
 bond charge predicted
 wavefunctions rotated
       N       E                     dE             d eps       ncg     rms          ort
 gam= 0.000 g(H,U,f)=  0.355E-03 0.295E-05 0.345E-22 ort(H,U,f) = 0.000E+00 0.000E+00 0.000E+00
SDA:   1    -0.593744171822E+03    0.14789E-03    0.00000E+00  1200   0.358E-03 0.000E+00
 gam= 0.000 trial= 0.640  step= 0.659 mean= 0.640
 gam= 0.294 g(H,U,f)=  0.103E-03 0.190E-05 0.959E-22 ort(H,U,f) = 0.211E-05-0.205E-05 0.466E-22
CGA:   2    -0.593744289812E+03   -0.11799E-03   -0.11799E-03  1200   0.105E-03 0.606E-07
 gam= 0.294 trial= 0.641  step= 0.498 mean= 0.641
 gam= 0.153 g(H,U,f)=  0.157E-04 0.381E-06 0.323E-22 ort(H,U,f) =-0.347E-06 0.212E-06-0.625E-22
CGA:   3    -0.593744316000E+03   -0.26189E-04   -0.26179E-04  1200   0.161E-04-0.135E-06
 gam= 0.153 trial= 0.634  step= 0.512 mean= 0.634
 gam= 0.191 g(H,U,f)=  0.292E-05 0.159E-06 0.149E-22 ort(H,U,f) =-0.273E-06 0.245E-06 0.155E-22
CGA:   4    -0.593744320121E+03   -0.41208E-05   -0.41189E-05  1200   0.308E-05-0.283E-07
 gam= 0.191 trial= 0.628  step= 0.539 mean= 0.628
 gam= 0.197 g(H,U,f)=  0.527E-06 0.801E-07 0.205E-24 ort(H,U,f) =-0.121E-06 0.138E-06 0.174E-23
CGA:   5    -0.593744320949E+03   -0.82811E-06   -0.82852E-06  1200   0.607E-06 0.165E-07
 gam= 0.197 trial= 0.623  step= 0.664 mean= 0.623
 gam= 0.274 g(H,U,f)=  0.142E-06 0.243E-07 0.105E-23 ort(H,U,f) =-0.539E-07 0.567E-07 0.132E-23
CGA:   6    -0.593744321152E+03   -0.20280E-06   -0.20266E-06  1200   0.166E-06 0.276E-08
 gam= 0.274 trial= 0.625  step= 0.703 mean= 0.625
 gam= 0.305 g(H,U,f)=  0.446E-07 0.601E-08 0.195E-23 ort(H,U,f) =-0.130E-07 0.185E-07 0.192E-23
CGA:   7    -0.593744321211E+03   -0.58872E-07   -0.58737E-07  1200   0.506E-07 0.555E-08
 gam= 0.305 trial= 0.629  step= 0.788 mean= 0.629
 gam= 0.301 g(H,U,f)=  0.144E-07 0.861E-09 0.889E-25 ort(H,U,f) =-0.558E-08 0.364E-08 0.539E-24
CGA:   8    -0.593744321231E+03   -0.19969E-07   -0.20624E-07  1200   0.153E-07-0.194E-08
 gam= 0.301 trial= 0.637  step= 0.731 mean= 0.637
 final diagonalization
 400 F= -.59374432E+03 E0= -.59374432E+03  d E =-.292764E-04
 curvature:  -5.25 expect dE=-0.493E-03 dE for cont linesearch -0.182E-09
 trial: gam= 0.49957 g(F)=  0.938E-04 g(S)=  0.000E+00 ort =-0.453E-06 (trialstep = 0.270E+00)
 search vector abs. value=  0.157E-02
 bond charge predicted
 wavefunctions rotated
       N       E                     dE             d eps       ncg     rms          ort
 gam= 0.000 g(H,U,f)=  0.179E-02 0.157E-04 0.209E-22 ort(H,U,f) = 0.000E+00 0.000E+00 0.000E+00
SDA:   1    -0.593743586449E+03    0.73476E-03    0.00000E+00  1200   0.181E-02 0.000E+00
 gam= 0.000 trial= 0.642  step= 0.657 mean= 0.642
 gam= 0.298 g(H,U,f)=  0.529E-03 0.104E-04 0.308E-20 ort(H,U,f) = 0.113E-04-0.113E-04-0.278E-22
CGA:   2    -0.593744179537E+03   -0.59309E-03   -0.59309E-03  1200   0.539E-03-0.424E-08
 gam= 0.298 trial= 0.643  step= 0.500 mean= 0.643
 gam= 0.155 g(H,U,f)=  0.812E-04 0.212E-05 0.489E-21 ort(H,U,f) =-0.125E-05 0.105E-05-0.121E-20
CGA:   3    -0.593744314357E+03   -0.13482E-03   -0.13481E-03  1200   0.834E-04-0.199E-06
 gam= 0.155 trial= 0.636  step= 0.509 mean= 0.636
 gam= 0.193 g(H,U,f)=  0.152E-04 0.829E-06 0.165E-21 ort(H,U,f) =-0.127E-05 0.129E-05 0.176E-21
CGA:   4    -0.593744335560E+03   -0.21203E-04   -0.21205E-04  1200   0.161E-04 0.235E-07
 gam= 0.193 trial= 0.629  step= 0.540 mean= 0.629
 gam= 0.194 g(H,U,f)=  0.270E-05 0.413E-06 0.809E-23 ort(H,U,f) =-0.658E-06 0.724E-06-0.437E-22
CGA:   5    -0.593744339897E+03   -0.43374E-05   -0.43400E-05  1200   0.311E-05 0.659E-07
 gam= 0.194 trial= 0.625  step= 0.661 mean= 0.625
 gam= 0.275 g(H,U,f)=  0.724E-06 0.132E-06 0.113E-22 ort(H,U,f) =-0.290E-06 0.299E-06 0.598E-24
CGA:   6    -0.593744340931E+03   -0.10335E-05   -0.10332E-05  1200   0.856E-06 0.975E-08
 gam= 0.275 trial= 0.627  step= 0.715 mean= 0.627
 gam= 0.310 g(H,U,f)=  0.234E-06 0.313E-07 0.174E-22 ort(H,U,f) =-0.741E-07 0.963E-07 0.142E-22
CGA:   7    -0.593744341239E+03   -0.30790E-06   -0.30677E-06  1200   0.265E-06 0.222E-07
 gam= 0.310 trial= 0.631  step= 0.739 mean= 0.631
 gam= 0.271 g(H,U,f)=  0.669E-07 0.491E-08 0.227E-24 ort(H,U,f) =-0.130E-07 0.212E-07 0.248E-23
CGA:   8    -0.593744341340E+03   -0.10148E-06   -0.10062E-06  1200   0.718E-07 0.820E-08
 gam= 0.271 trial= 0.636  step= 0.720 mean= 0.636
 final diagonalization
 401 F= -.59374434E+03 E0= -.59374434E+03  d E =-.201093E-04
 trial-energy change:   -0.000020  1 .order   -0.000020   -0.000025   -0.000015
 step:   0.6721(harm=  0.6721)  dis= 0.00146  next Energy=  -593.744353 (dE=-0.315E-04)
 bond charge predicted
 wavefunctions rotated
       N       E                     dE             d eps       ncg     rms          ort
 gam= 0.000 g(H,U,f)=  0.399E-02 0.351E-04 0.485E-22 ort(H,U,f) = 0.000E+00 0.000E+00 0.000E+00
SDA:   1    -0.593742669612E+03    0.16716E-02    0.00000E+00  1200   0.403E-02 0.000E+00
 gam= 0.000 trial= 0.641  step= 0.657 mean= 0.641
 gam= 0.298 g(H,U,f)=  0.118E-02 0.232E-04 0.714E-20 ort(H,U,f) = 0.252E-04-0.252E-04-0.664E-22
CGA:   2    -0.593743991828E+03   -0.13222E-02   -0.13222E-02  1200   0.120E-02-0.226E-07
 gam= 0.298 trial= 0.641  step= 0.500 mean= 0.641
 gam= 0.155 g(H,U,f)=  0.181E-03 0.473E-05 0.111E-20 ort(H,U,f) =-0.263E-05 0.234E-05-0.275E-20
CGA:   3    -0.593744292365E+03   -0.30054E-03   -0.30052E-03  1200   0.186E-03-0.298E-06
 gam= 0.155 trial= 0.634  step= 0.509 mean= 0.634
 gam= 0.193 g(H,U,f)=  0.339E-04 0.185E-05 0.378E-21 ort(H,U,f) =-0.285E-05 0.289E-05 0.399E-21
CGA:   4    -0.593744339656E+03   -0.47291E-04   -0.47293E-04  1200   0.358E-04 0.333E-07
 gam= 0.193 trial= 0.628  step= 0.541 mean= 0.628
 gam= 0.195 g(H,U,f)=  0.605E-05 0.920E-06 0.198E-22 ort(H,U,f) =-0.152E-05 0.161E-05-0.103E-21
CGA:   5    -0.593744349337E+03   -0.96808E-05   -0.96852E-05  1200   0.697E-05 0.971E-07
 gam= 0.195 trial= 0.624  step= 0.661 mean= 0.624
 gam= 0.275 g(H,U,f)=  0.162E-05 0.293E-06 0.254E-22 ort(H,U,f) =-0.651E-06 0.666E-06 0.710E-24
CGA:   6    -0.593744351647E+03   -0.23103E-05   -0.23100E-05  1200   0.192E-05 0.153E-07
 gam= 0.275 trial= 0.626  step= 0.721 mean= 0.626
 gam= 0.314 g(H,U,f)=  0.534E-06 0.684E-07 0.397E-22 ort(H,U,f) =-0.178E-06 0.211E-06 0.320E-22
CGA:   7    -0.593744352341E+03   -0.69398E-06   -0.69237E-06  1200   0.603E-06 0.331E-07
 gam= 0.314 trial= 0.630  step= 0.743 mean= 0.630
 gam= 0.271 g(H,U,f)=  0.153E-06 0.104E-07 0.409E-24 ort(H,U,f) =-0.330E-07 0.451E-07 0.503E-23
CGA:   8    -0.593744352570E+03   -0.22872E-06   -0.22771E-06  1200   0.163E-06 0.121E-07
 gam= 0.271 trial= 0.636  step= 0.725 mean= 0.636
 final diagonalization
 402 F= -.59374435E+03 E0= -.59374435E+03  d E =-.313388E-04
 curvature:  -5.65 expect dE=-0.899E-03 dE for cont linesearch -0.290E-09
 trial: gam= 1.70385 g(F)=  0.159E-03 g(S)=  0.000E+00 ort =-0.284E-06 (trialstep = 0.117E+00)
 search vector abs. value=  0.472E-02
 bond charge predicted
 wavefunctions rotated
       N       E                     dE             d eps       ncg     rms          ort
 gam= 0.000 g(H,U,f)=  0.104E-02 0.846E-05 0.180E-21 ort(H,U,f) = 0.000E+00 0.000E+00 0.000E+00
SDA:   1    -0.593743924641E+03    0.42770E-03    0.00000E+00  1200   0.105E-02 0.000E+00
 gam= 0.000 trial= 0.640  step= 0.667 mean= 0.640
 gam= 0.297 g(H,U,f)=  0.307E-03 0.563E-05 0.348E-20 ort(H,U,f) = 0.546E-05-0.605E-05-0.792E-21
CGA:   2    -0.593744275355E+03   -0.35071E-03   -0.35072E-03  1200   0.313E-03-0.596E-06
 gam= 0.297 trial= 0.642  step= 0.499 mean= 0.642
 gam= 0.154 g(H,U,f)=  0.473E-04 0.105E-05 0.153E-21 ort(H,U,f) =-0.552E-06 0.466E-06-0.673E-21
CGA:   3    -0.593744353345E+03   -0.77990E-04   -0.77983E-04  1200   0.483E-04-0.866E-07
 gam= 0.154 trial= 0.635  step= 0.509 mean= 0.635
 gam= 0.188 g(H,U,f)=  0.864E-05 0.463E-06 0.382E-22 ort(H,U,f) =-0.704E-06 0.686E-06 0.246E-22
CGA:   4    -0.593744365650E+03   -0.12305E-04   -0.12304E-04  1200   0.911E-05-0.183E-07
 gam= 0.188 trial= 0.628  step= 0.542 mean= 0.628
 gam= 0.194 g(H,U,f)=  0.154E-05 0.227E-06 0.139E-22 ort(H,U,f) =-0.365E-06 0.393E-06-0.258E-22
CGA:   5    -0.593744368113E+03   -0.24636E-05   -0.24646E-05  1200   0.177E-05 0.279E-07
 gam= 0.194 trial= 0.624  step= 0.669 mean= 0.624
 gam= 0.279 g(H,U,f)=  0.426E-06 0.685E-07 0.242E-23 ort(H,U,f) =-0.179E-06 0.158E-06-0.370E-23
CGA:   6    -0.593744368707E+03   -0.59358E-06   -0.59378E-06  1200   0.494E-06-0.208E-07
 gam= 0.279 trial= 0.626  step= 0.712 mean= 0.626
 gam= 0.307 g(H,U,f)=  0.134E-06 0.173E-07 0.615E-23 ort(H,U,f) =-0.434E-07 0.522E-07 0.221E-23
CGA:   7    -0.593744368882E+03   -0.17494E-06   -0.17396E-06  1200   0.152E-06 0.878E-08
 gam= 0.307 trial= 0.631  step= 0.730 mean= 0.631
 gam= 0.268 g(H,U,f)=  0.380E-07 0.265E-08 0.224E-24 ort(H,U,f) =-0.584E-08 0.111E-07 0.130E-23
CGA:   8    -0.593744368938E+03   -0.56482E-07   -0.56349E-07  1200   0.406E-07 0.530E-08
 gam= 0.268 trial= 0.635  step= 0.737 mean= 0.635
 final diagonalization
 403 F= -.59374437E+03 E0= -.59374437E+03  d E =-.163686E-04
 trial-energy change:   -0.000016  1 .order   -0.000016   -0.000018   -0.000014
 step:   0.4320(harm=  0.4320)  dis= 0.00152  next Energy=  -593.744387 (dE=-0.343E-04)
 bond charge predicted
 wavefunctions rotated
       N       E                     dE             d eps       ncg     rms          ort
 gam= 0.000 g(H,U,f)=  0.764E-02 0.617E-04 0.155E-20 ort(H,U,f) = 0.000E+00 0.000E+00 0.000E+00
SDA:   1    -0.593741135326E+03    0.32336E-02    0.00000E+00  1200   0.770E-02 0.000E+00
 gam= 0.000 trial= 0.641  step= 0.667 mean= 0.641
 gam= 0.297 g(H,U,f)=  0.225E-02 0.410E-04 0.279E-19 ort(H,U,f) = 0.426E-04-0.441E-04-0.677E-20
CGA:   2    -0.593743702757E+03   -0.25674E-02   -0.25675E-02  1200   0.229E-02-0.153E-05
 gam= 0.297 trial= 0.642  step= 0.499 mean= 0.642
 gam= 0.155 g(H,U,f)=  0.347E-03 0.762E-05 0.111E-20 ort(H,U,f) =-0.365E-05 0.341E-05-0.501E-20
CGA:   3    -0.593744273135E+03   -0.57038E-03   -0.57036E-03  1200   0.354E-03-0.240E-06
 gam= 0.155 trial= 0.635  step= 0.508 mean= 0.635
 gam= 0.190 g(H,U,f)=  0.638E-04 0.338E-05 0.297E-21 ort(H,U,f) =-0.505E-05 0.501E-05 0.174E-21
CGA:   4    -0.593744363153E+03   -0.90018E-04   -0.90015E-04  1200   0.672E-04-0.395E-07
 gam= 0.190 trial= 0.628  step= 0.541 mean= 0.628
 gam= 0.193 g(H,U,f)=  0.113E-04 0.166E-05 0.118E-21 ort(H,U,f) =-0.280E-05 0.287E-05-0.207E-21
CGA:   5    -0.593744381325E+03   -0.18172E-04   -0.18175E-04  1200   0.130E-04 0.736E-07
 gam= 0.193 trial= 0.624  step= 0.661 mean= 0.624
 gam= 0.272 g(H,U,f)=  0.302E-05 0.508E-06 0.154E-22 ort(H,U,f) =-0.122E-05 0.116E-05-0.279E-22
CGA:   6    -0.593744385611E+03   -0.42866E-05   -0.42875E-05  1200   0.353E-05-0.514E-07
 gam= 0.272 trial= 0.626  step= 0.723 mean= 0.626
 gam= 0.314 g(H,U,f)=  0.980E-06 0.129E-06 0.464E-22 ort(H,U,f) =-0.356E-06 0.383E-06 0.136E-22
CGA:   7    -0.593744386883E+03   -0.12713E-05   -0.12699E-05  1200   0.111E-05 0.262E-07
 gam= 0.314 trial= 0.631  step= 0.741 mean= 0.631
 gam= 0.270 g(H,U,f)=  0.281E-06 0.188E-07 0.143E-23 ort(H,U,f) =-0.654E-07 0.795E-07 0.886E-23
CGA:   8    -0.593744387298E+03   -0.41476E-06   -0.41388E-06  1200   0.300E-06 0.140E-07
 gam= 0.270 trial= 0.636  step= 0.728 mean= 0.636
 final diagonalization
 404 F= -.59374439E+03 E0= -.59374439E+03  d E =-.347277E-04
 curvature:  -6.43 expect dE=-0.445E-03 dE for cont linesearch -0.218E-09
 trial: gam= 0.42973 g(F)=  0.692E-04 g(S)=  0.000E+00 ort =-0.401E-06 (trialstep = 0.180E+00)
 search vector abs. value=  0.941E-03
 bond charge predicted
 wavefunctions rotated
       N       E                     dE             d eps       ncg     rms          ort
 gam= 0.000 g(H,U,f)=  0.452E-03 0.392E-05 0.155E-21 ort(H,U,f) = 0.000E+00 0.000E+00 0.000E+00
SDA:   1    -0.593744205021E+03    0.18186E-03    0.00000E+00  1200   0.456E-03 0.000E+00
 gam= 0.000 trial= 0.641  step= 0.665 mean= 0.641
 gam= 0.303 g(H,U,f)=  0.135E-03 0.305E-05 0.195E-21 ort(H,U,f) = 0.309E-05-0.302E-05 0.159E-21
CGA:   2    -0.593744356602E+03   -0.15158E-03   -0.15158E-03  1200   0.138E-03 0.704E-07
 gam= 0.303 trial= 0.642  step= 0.497 mean= 0.642
 gam= 0.153 g(H,U,f)=  0.206E-04 0.526E-06 0.184E-22 ort(H,U,f) =-0.470E-06 0.253E-06-0.743E-22
CGA:   3    -0.593744390977E+03   -0.34376E-04   -0.34360E-04  1200   0.211E-04-0.217E-06
 gam= 0.153 trial= 0.635  step= 0.514 mean= 0.635
 gam= 0.193 g(H,U,f)=  0.385E-05 0.231E-06 0.237E-22 ort(H,U,f) =-0.355E-06 0.346E-06 0.806E-23
CGA:   4    -0.593744396392E+03   -0.54148E-05   -0.54135E-05  1200   0.408E-05-0.983E-08
 gam= 0.193 trial= 0.629  step= 0.550 mean= 0.629
 gam= 0.209 g(H,U,f)=  0.742E-06 0.111E-06 0.196E-23 ort(H,U,f) =-0.199E-06 0.196E-06-0.720E-23
CGA:   5    -0.593744397513E+03   -0.11209E-05   -0.11207E-05  1200   0.853E-06-0.310E-08
 gam= 0.209 trial= 0.625  step= 0.680 mean= 0.625
 gam= 0.291 g(H,U,f)=  0.218E-06 0.308E-07 0.113E-24 ort(H,U,f) =-0.817E-07 0.755E-07-0.110E-24
CGA:   6    -0.593744397803E+03   -0.28969E-06   -0.28970E-06  1200   0.249E-06-0.616E-08
 gam= 0.291 trial= 0.628  step= 0.695 mean= 0.628
 gam= 0.302 g(H,U,f)=  0.675E-07 0.746E-08 0.295E-23 ort(H,U,f) =-0.117E-07 0.238E-07 0.420E-24
CGA:   7    -0.593744397889E+03   -0.86434E-07   -0.85796E-07  1200   0.750E-07 0.121E-07
 gam= 0.302 trial= 0.631  step= 0.731 mean= 0.631
 gam= 0.276 g(H,U,f)=  0.196E-07 0.103E-08 0.856E-26 ort(H,U,f) =-0.134E-08 0.451E-08 0.159E-24
CGA:   8    -0.593744397919E+03   -0.29277E-07   -0.28753E-07  1200   0.207E-07 0.317E-08
 gam= 0.276 trial= 0.636  step= 0.723 mean= 0.636
 final diagonalization
 405 F= -.59374440E+03 E0= -.59374440E+03  d E =-.106210E-04
 trial-energy change:   -0.000011  1 .order   -0.000011   -0.000012   -0.000009
 step:   0.5887(harm=  0.5887)  dis= 0.00106  next Energy=  -593.744408 (dE=-0.203E-04)
 reached required accuracy - stopping structural energy minimisation
Note: The following floating-point exceptions are signalling: IEEE_INVALID_FLAG
Note: The following floating-point exceptions are signalling: IEEE_INVALID_FLAG
Note: The following floating-point exceptions are signalling: IEEE_INVALID_FLAG
Note: The following floating-point exceptions are signalling: IEEE_INVALID_FLAG
Note: The following floating-point exceptions are signalling: IEEE_INVALID_FLAG
Note: The following floating-point exceptions are signalling: IEEE_INVALID_FLAG
Note: The following floating-point exceptions are signalling: IEEE_INVALID_FLAG
Note: The following floating-point exceptions are signalling: IEEE_INVALID_FLAG
Note: The following floating-point exceptions are signalling: IEEE_INVALID_FLAG
Note: The following floating-point exceptions are signalling: IEEE_INVALID_FLAG
Note: The following floating-point exceptions are signalling: IEEE_INVALID_FLAG
Note: The following floating-point exceptions are signalling: IEEE_INVALID_FLAG
Note: The following floating-point exceptions are signalling: IEEE_INVALID_FLAG
Note: The following floating-point exceptions are signalling: IEEE_INVALID_FLAG
Note: The following floating-point exceptions are signalling: IEEE_INVALID_FLAG
Note: The following floating-point exceptions are signalling: IEEE_INVALID_FLAG
Note: The following floating-point exceptions are signalling: IEEE_INVALID_FLAG
Note: The following floating-point exceptions are signalling: IEEE_INVALID_FLAG
Note: The following floating-point exceptions are signalling: IEEE_INVALID_FLAG
Note: The following floating-point exceptions are signalling: IEEE_INVALID_FLAG
Note: The following floating-point exceptions are signalling: IEEE_INVALID_FLAG
Note: The following floating-point exceptions are signalling: IEEE_INVALID_FLAG
Note: The following floating-point exceptions are signalling: IEEE_INVALID_FLAG
Note: The following floating-point exceptions are signalling: IEEE_INVALID_FLAG
Note: The following floating-point exceptions are signalling: IEEE_INVALID_FLAG
Note: The following floating-point exceptions are signalling: IEEE_INVALID_FLAG
Note: The following floating-point exceptions are signalling: IEEE_INVALID_FLAG
Note: The following floating-point exceptions are signalling: IEEE_INVALID_FLAG
Note: The following floating-point exceptions are signalling: IEEE_INVALID_FLAG
Note: The following floating-point exceptions are signalling: IEEE_INVALID_FLAG
Note: The following floating-point exceptions are signalling: IEEE_INVALID_FLAG
Note: The following floating-point exceptions are signalling: IEEE_INVALID_FLAG
Note: The following floating-point exceptions are signalling: IEEE_INVALID_FLAG
Note: The following floating-point exceptions are signalling: IEEE_INVALID_FLAG
Note: The following floating-point exceptions are signalling: IEEE_INVALID_FLAG
Note: The following floating-point exceptions are signalling: IEEE_INVALID_FLAG
Note: The following floating-point exceptions are signalling: IEEE_INVALID_FLAG
Note: The following floating-point exceptions are signalling: IEEE_INVALID_FLAG
Note: The following floating-point exceptions are signalling: IEEE_INVALID_FLAG
Note: The following floating-point exceptions are signalling: IEEE_INVALID_FLAG
Note: The following floating-point exceptions are signalling: IEEE_INVALID_FLAG
Note: The following floating-point exceptions are signalling: IEEE_INVALID_FLAG
Note: The following floating-point exceptions are signalling: IEEE_INVALID_FLAG
Note: The following floating-point exceptions are signalling: IEEE_INVALID_FLAG
Note: The following floating-point exceptions are signalling: IEEE_INVALID_FLAG
Note: The following floating-point exceptions are signalling: IEEE_INVALID_FLAG
Note: The following floating-point exceptions are signalling: IEEE_INVALID_FLAG
Note: The following floating-point exceptions are signalling: IEEE_INVALID_FLAG
Note: The following floating-point exceptions are signalling: IEEE_INVALID_FLAG
Note: The following floating-point exceptions are signalling: IEEE_INVALID_FLAG
Note: The following floating-point exceptions are signalling: IEEE_INVALID_FLAG
Note: The following floating-point exceptions are signalling: IEEE_INVALID_FLAG
Note: The following floating-point exceptions are signalling: IEEE_INVALID_FLAG
Note: The following floating-point exceptions are signalling: IEEE_INVALID_FLAG
Note: The following floating-point exceptions are signalling: IEEE_INVALID_FLAG
Note: The following floating-point exceptions are signalling: IEEE_INVALID_FLAG
Note: The following floating-point exceptions are signalling: IEEE_INVALID_FLAG
Note: The following floating-point exceptions are signalling: IEEE_INVALID_FLAG
Note: The following floating-point exceptions are signalling: IEEE_INVALID_FLAG
Note: The following floating-point exceptions are signalling: IEEE_INVALID_FLAG
Note: The following floating-point exceptions are signalling: IEEE_INVALID_FLAG
Note: The following floating-point exceptions are signalling: IEEE_INVALID_FLAG
Note: The following floating-point exceptions are signalling: IEEE_INVALID_FLAG
Note: The following floating-point exceptions are signalling: IEEE_INVALID_FLAG
