<?xml version="1.0" encoding="ISO-8859-1"?>
<modeling>
 <generator>
  <i name="program" type="string">vasp </i>
  <i name="version" type="string">6.3.1  </i>
  <i name="subversion" type="string">04May22 (build May 25 2022 13:42:54) complex                          parallel </i>
  <i name="platform" type="string">HPECrayEX_GCC </i>
  <i name="date" type="string">2022 09 14 </i>
  <i name="time" type="string">19:06:33 </i>
 </generator>
 <incar>
  <i type="string" name="SYSTEM">hexagonal-FASnI3</i>
  <i type="int" name="ISTART">     0</i>
  <i type="string" name="PREC">Accurate</i>
  <i type="string" name="ALGO">ALL</i>
  <i type="int" name="ISPIN">     1</i>
  <i type="int" name="NELM">   200</i>
  <i type="int" name="NELMIN">     8</i>
  <i type="int" name="IBRION">     2</i>
  <i name="EDIFF">      0.00000500</i>
  <i name="EDIFFG">     -0.01000000</i>
  <i type="int" name="NSW">  1000</i>
  <i type="int" name="ISIF">     0</i>
  <i type="int" name="ISYM">     0</i>
  <i name="ENCUT">    700.00000000</i>
  <i type="logical" name="LREAL"> F  </i>
  <i type="int" name="ISMEAR">     0</i>
  <i name="SIGMA">      0.05000000</i>
  <i type="logical" name="LWAVE"> F  </i>
  <i type="logical" name="LCHARG"> F  </i>
  <i type="logical" name="LASPH"> T  </i>
  <i type="string" name="METAGGA">R2SCAN</i>
 </incar>
 <primitive_cell>
  <structure name="primitive_cell" >
   <crystal>
    <varray name="basis" >
     <v>      14.63700000       0.00000000       0.00000000 </v>
     <v>       0.00000000       8.78600000       0.00000000 </v>
     <v>       0.00000000       0.00000000       8.28800000 </v>
    </varray>
    <i name="volume">   1065.84245242 </i>
    <varray name="rec_basis" >
     <v>       0.06832001       0.00000000       0.00000000 </v>
     <v>       0.00000000       0.11381744       0.00000000 </v>
     <v>       0.00000000       0.00000000       0.12065637 </v>
    </varray>
   </crystal>
   <varray name="positions" >
    <v>       0.65646743       0.53879834       0.27041478 </v>
    <v>       0.34135323       0.48869209       0.80474680 </v>
    <v>       0.84560662       0.03426624       0.77006606 </v>
    <v>       0.17382611       0.03638576       0.21775009 </v>
    <v>       0.65921374       0.42563255       0.05303538 </v>
    <v>       0.65487989       0.31350676       0.33123189 </v>
    <v>       0.65031646       0.44285606       0.49008031 </v>
    <v>       0.66323545       0.62179044       0.04448849 </v>
    <v>       0.65591618       0.65253139       0.32179247 </v>
    <v>       0.34144022       0.65554831       0.63335617 </v>
    <v>       0.45063023       0.62267187       0.85873148 </v>
    <v>       0.42740536       0.47256015       0.99176947 </v>
    <v>       0.25839538       0.51711670       0.61298193 </v>
    <v>       0.30511048       0.38725959       0.84295868 </v>
    <v>       0.85640989       0.84747110       0.91466567 </v>
    <v>       0.83914024       0.85147927       0.61879596 </v>
    <v>       0.83124090       0.02771834       0.52760744 </v>
    <v>       0.86321838       0.02385357       0.01040918 </v>
    <v>       0.84502978       0.15796180       0.77219503 </v>
    <v>       0.14035905       0.93554696       0.43320798 </v>
    <v>       0.17874271       0.80825187       0.17022383 </v>
    <v>       0.20506846       0.92945513       0.01092195 </v>
    <v>       0.14488498       0.13235415       0.43176887 </v>
    <v>       0.18403349       0.14726510       0.16294620 </v>
    <v>       0.58910000       0.23970000       0.79700000 </v>
    <v>       0.41090000       0.76030000       0.29700000 </v>
    <v>       0.91090000       0.73970000       0.29700000 </v>
    <v>       0.08910000       0.26030000       0.79700000 </v>
    <v>       0.33402000       0.99870000       0.75710000 </v>
    <v>       0.66598000       0.00130000       0.25710000 </v>
    <v>       0.16598000       0.49870000       0.25710000 </v>
    <v>       0.83402000       0.50130000       0.75710000 </v>
    <v>       0.41170000       0.24010000       0.20500000 </v>
    <v>       0.58830000       0.75990000       0.70500000 </v>
    <v>       0.08830000       0.74010000       0.70500000 </v>
    <v>       0.91170000       0.25990000       0.20500000 </v>
    <v>       0.65372597       0.42344238       0.36999223 </v>
    <v>       0.65943845       0.52678832       0.11290430 </v>
    <v>       0.40892814       0.53630840       0.89482899 </v>
    <v>       0.31405568       0.55605181       0.67248316 </v>
    <v>       0.83736115       0.96646138       0.63024928 </v>
    <v>       0.85430801       0.96254963       0.90766548 </v>
    <v>       0.18389799       0.91616941       0.12649111 </v>
    <v>       0.15198832       0.03335273       0.37108857 </v>
    <v>       0.50000000       0.00260000       0.00000000 </v>
    <v>       0.50000000       0.99740000       0.50000000 </v>
    <v>       0.00000000       0.50260000       0.50000000 </v>
    <v>       0.00000000       0.49740000       0.00000000 </v>
   </varray>
  </structure>
  <varray name="primitive_index" >
   <v type="int" >        1 </v>
   <v type="int" >        2 </v>
   <v type="int" >        3 </v>
   <v type="int" >        4 </v>
   <v type="int" >        5 </v>
   <v type="int" >        6 </v>
   <v type="int" >        7 </v>
   <v type="int" >        8 </v>
   <v type="int" >        9 </v>
   <v type="int" >       10 </v>
   <v type="int" >       11 </v>
   <v type="int" >       12 </v>
   <v type="int" >       13 </v>
   <v type="int" >       14 </v>
   <v type="int" >       15 </v>
   <v type="int" >       16 </v>
   <v type="int" >       17 </v>
   <v type="int" >       18 </v>
   <v type="int" >       19 </v>
   <v type="int" >       20 </v>
   <v type="int" >       21 </v>
   <v type="int" >       22 </v>
   <v type="int" >       23 </v>
   <v type="int" >       24 </v>
   <v type="int" >       25 </v>
   <v type="int" >       26 </v>
   <v type="int" >       27 </v>
   <v type="int" >       28 </v>
   <v type="int" >       29 </v>
   <v type="int" >       30 </v>
   <v type="int" >       31 </v>
   <v type="int" >       32 </v>
   <v type="int" >       33 </v>
   <v type="int" >       34 </v>
   <v type="int" >       35 </v>
   <v type="int" >       36 </v>
   <v type="int" >       37 </v>
   <v type="int" >       38 </v>
   <v type="int" >       39 </v>
   <v type="int" >       40 </v>
   <v type="int" >       41 </v>
   <v type="int" >       42 </v>
   <v type="int" >       43 </v>
   <v type="int" >       44 </v>
   <v type="int" >       45 </v>
   <v type="int" >       46 </v>
   <v type="int" >       47 </v>
   <v type="int" >       48 </v>
  </varray>
 </primitive_cell>
 <kpoints>
  <generation param="Gamma">
   <v type="int" name="divisions">       2        3        3 </v>
   <v name="usershift">      0.00000000       0.00000000       0.00000000 </v>
   <v name="genvec1">      0.50000000       0.00000000       0.00000000 </v>
   <v name="genvec2">      0.00000000       0.33333333       0.00000000 </v>
   <v name="genvec3">      0.00000000       0.00000000       0.33333333 </v>
   <v name="shift">      0.00000000       0.00000000       0.00000000 </v>
  </generation>
  <varray name="kpointlist" >
   <v>       0.00000000       0.00000000       0.00000000 </v>
   <v>       0.50000000       0.00000000       0.00000000 </v>
   <v>       0.00000000       0.33333333       0.00000000 </v>
   <v>       0.50000000       0.33333333       0.00000000 </v>
   <v>       0.00000000       0.00000000       0.33333333 </v>
   <v>       0.50000000       0.00000000       0.33333333 </v>
   <v>       0.00000000       0.33333333       0.33333333 </v>
   <v>       0.00000000      -0.33333333       0.33333333 </v>
   <v>       0.50000000       0.33333333       0.33333333 </v>
   <v>       0.50000000      -0.33333333       0.33333333 </v>
  </varray>
  <varray name="weights" >
   <v>       0.05555556 </v>
   <v>       0.05555556 </v>
   <v>       0.11111111 </v>
   <v>       0.11111111 </v>
   <v>       0.11111111 </v>
   <v>       0.11111111 </v>
   <v>       0.11111111 </v>
   <v>       0.11111111 </v>
   <v>       0.11111111 </v>
   <v>       0.11111111 </v>
  </varray>
 </kpoints>
 <parameters>
  <separator name="general" >
   <i type="string" name="SYSTEM">hexagonal-FASnI3</i>
   <i type="logical" name="LCOMPAT"> F  </i>
  </separator>
  <separator name="electronic" >
   <i type="string" name="PREC">accura</i>
   <i name="ENMAX">    700.00000000</i>
   <i name="ENAUG">    644.87300000</i>
   <i name="EDIFF">      0.00000500</i>
   <i type="int" name="IALGO">    58</i>
   <i type="int" name="IWAVPR">    11</i>
   <i type="int" name="NBANDS">   120</i>
   <i type="int" name="NBANDSLOW">    -1</i>
   <i type="int" name="NBANDSHIGH">    -1</i>
   <i name="NELECT">    176.00000000</i>
   <i type="int" name="TURBO">     0</i>
   <i type="int" name="IRESTART">     0</i>
   <i type="int" name="NREBOOT">     0</i>
   <i type="int" name="NMIN">     0</i>
   <i name="EREF">      0.00000000</i>
   <separator name="electronic smearing" >
    <i type="int" name="ISMEAR">     0</i>
    <i name="SIGMA">      0.05000000</i>
    <i name="KSPACING">      0.50000000</i>
    <i type="logical" name="KGAMMA"> T  </i>
    <i type="logical" name="KBLOWUP"> T  </i>
   </separator>
   <separator name="electronic projectors" >
    <i type="logical" name="LREAL"> F  </i>
    <v name="ROPT">      0.00000000      0.00000000      0.00000000      0.00000000      0.00000000</v>
    <i type="int" name="LMAXPAW">  -100</i>
    <i type="int" name="LMAXMIX">     2</i>
    <i type="logical" name="NLSPLINE"> F  </i>
   </separator>
   <separator name="electronic startup" >
    <i type="int" name="ISTART">     0</i>
    <i type="int" name="ICHARG">     2</i>
    <i type="int" name="INIWAV">     1</i>
   </separator>
   <separator name="electronic spin" >
    <i type="int" name="ISPIN">     1</i>
    <i type="logical" name="LNONCOLLINEAR"> F  </i>
    <v name="MAGMOM">      1.00000000      1.00000000      1.00000000      1.00000000      1.00000000      1.00000000      1.00000000      1.00000000      1.00000000      1.00000000      1.00000000      1.00000000      1.00000000      1.00000000      1.00000000      1.00000000      1.00000000      1.00000000      1.00000000      1.00000000
      1.00000000      1.00000000      1.00000000      1.00000000      1.00000000      1.00000000      1.00000000      1.00000000      1.00000000      1.00000000      1.00000000      1.00000000      1.00000000      1.00000000      1.00000000      1.00000000      1.00000000      1.00000000      1.00000000      1.00000000
      1.00000000      1.00000000      1.00000000      1.00000000      1.00000000      1.00000000      1.00000000      1.00000000</v>
    <i name="NUPDOWN">     -1.00000000</i>
    <i type="logical" name="LSORBIT"> F  </i>
    <v name="SAXIS">      0.00000000      0.00000000      1.00000000</v>
    <i type="logical" name="LSPIRAL"> F  </i>
    <v name="QSPIRAL">      0.00000000      0.00000000      0.00000000</v>
    <i type="logical" name="LZEROZ"> F  </i>
   </separator>
   <separator name="electronic exchange-correlation" >
    <i type="logical" name="LASPH"> T  </i>
    <i type="logical" name="LMETAGGA"> F  </i>
   </separator>
   <separator name="electronic convergence" >
    <i type="int" name="NELM">   200</i>
    <i type="int" name="NELMDL">    -5</i>
    <i type="int" name="NELMIN">     8</i>
    <i name="ENINI">    700.00000000</i>
    <separator name="electronic convergence detail" >
     <i type="logical" name="LDIAG"> T  </i>
     <i type="logical" name="LSUBROT"> F  </i>
     <i name="WEIMIN">      0.00100000</i>
     <i name="EBREAK">      0.00000001</i>
     <i name="DEPER">      0.30000000</i>
     <i type="int" name="NRMM">     4</i>
     <i name="TIME">      0.40000000</i>
    </separator>
   </separator>
   <separator name="electronic mixer" >
    <i name="AMIX">      0.40000000</i>
    <i name="BMIX">      1.00000000</i>
    <i name="AMIN">      0.10000000</i>
    <i name="AMIX_MAG">      1.60000000</i>
    <i name="BMIX_MAG">      1.00000000</i>
    <separator name="electronic mixer details" >
     <i type="int" name="IMIX">     4</i>
     <i type="logical" name="MIXFIRST"> F  </i>
     <i type="int" name="MAXMIX">   -45</i>
     <i name="WC">    100.00000000</i>
     <i type="int" name="INIMIX">     1</i>
     <i type="int" name="MIXPRE">     1</i>
     <i type="int" name="MREMOVE">     5</i>
    </separator>
   </separator>
   <separator name="electronic dipolcorrection" >
    <i type="logical" name="LDIPOL"> F  </i>
    <i type="logical" name="LMONO"> F  </i>
    <i type="int" name="IDIPOL">     0</i>
    <i name="EPSILON">      1.00000000</i>
    <v name="DIPOL">   -100.00000000   -100.00000000   -100.00000000</v>
    <i name="EFIELD">      0.00000000</i>
   </separator>
  </separator>
  <separator name="grids" >
   <i type="int" name="NGX">   126</i>
   <i type="int" name="NGY">    80</i>
   <i type="int" name="NGZ">    72</i>
   <i type="int" name="NGXF">   252</i>
   <i type="int" name="NGYF">   160</i>
   <i type="int" name="NGZF">   144</i>
   <i type="logical" name="ADDGRID"> F  </i>
  </separator>
  <separator name="ionic" >
   <i type="int" name="NSW">  1000</i>
   <i type="int" name="IBRION">     2</i>
   <i type="int" name="MDALGO">     0</i>
   <i type="int" name="ISIF">     0</i>
   <i name="PSTRESS">      0.00000000</i>
   <i name="EDIFFG">     -0.01000000</i>
   <i type="int" name="NFREE">     1</i>
   <i name="POTIM">      0.50000000</i>
   <i name="SMASS">     -3.00000000</i>
   <i name="SCALEE">      1.00000000</i>
  </separator>
  <separator name="ionic md" >
   <i name="TEBEG">      0.00010000</i>
   <i name="TEEND">      0.00010000</i>
   <i type="int" name="NBLOCK">     1</i>
   <i type="int" name="KBLOCK">  1000</i>
   <i type="int" name="NPACO">   256</i>
   <i name="APACO">     10.00000000</i>
  </separator>
  <separator name="symmetry" >
   <i type="int" name="ISYM">     0</i>
   <i name="SYMPREC">      0.00001000</i>
  </separator>
  <separator name="dos" >
   <i type="int" name="LORBIT">     0</i>
   <v name="RWIGS">     -1.00000000     -1.00000000     -1.00000000     -1.00000000     -1.00000000</v>
   <i type="int" name="NEDOS">   301</i>
   <i name="EMIN">     10.00000000</i>
   <i name="EMAX">    -10.00000000</i>
   <i name="EFERMI">      0.00000000</i>
  </separator>
  <separator name="writing" >
   <i type="int" name="NWRITE">     2</i>
   <i type="logical" name="LWAVE"> F  </i>
   <i type="logical" name="LDOWNSAMPLE"> F  </i>
   <i type="logical" name="LCHARG"> F  </i>
   <i type="logical" name="LPARD"> F  </i>
   <i type="logical" name="LVTOT"> F  </i>
   <i type="logical" name="LVHAR"> F  </i>
   <i type="logical" name="LELF"> F  </i>
   <i type="logical" name="LOPTICS"> F  </i>
   <v name="STM">      0.00000000      0.00000000      0.00000000      0.00000000      0.00000000      0.00000000      0.00000000</v>
  </separator>
  <separator name="performance" >
   <i type="int" name="NPAR">     8</i>
   <i type="int" name="NSIM">     4</i>
   <i type="int" name="NBLK">    -1</i>
   <i type="logical" name="LPLANE"> T  </i>
   <i type="logical" name="LSCALAPACK"> T  </i>
   <i type="logical" name="LSCAAWARE"> F  </i>
   <i type="logical" name="LSCALU"> F  </i>
   <i type="logical" name="LASYNC"> F  </i>
   <i type="logical" name="LORBITALREAL"> F  </i>
  </separator>
  <separator name="miscellaneous" >
   <i type="int" name="IDIOT">     3</i>
   <i type="int" name="PHON_NSTRUCT">    -1</i>
   <i type="logical" name="LMUSIC"> F  </i>
   <v name="POMASS">     12.01100000      1.00000000    126.90400000     14.00100000    118.71000000</v>
   <v name="DARWINR">      0.00000000      0.00000000      0.00000000      0.00000000      0.00000000</v>
   <v name="DARWINV">      1.00000000      1.00000000      1.00000000      1.00000000      1.00000000</v>
   <i type="logical" name="LCORR"> T  </i>
  </separator>
  <i type="logical" name="GGA_COMPAT"> T  </i>
  <i type="logical" name="LBERRY"> F  </i>
  <i type="int" name="ICORELEVEL">     0</i>
  <i type="logical" name="LDAU"> F  </i>
  <i type="int" name="I_CONSTRAINED_M">     0</i>
  <separator name="electronic exchange-correlation" >
   <i type="string" name="GGA">--</i>
   <i type="int" name="VOSKOWN">     0</i>
   <i type="logical" name="LHFCALC"> F  </i>
   <i type="string" name="PRECFOCK"></i>
   <i type="logical" name="LSYMGRAD"> F  </i>
   <i type="logical" name="LHFONE"> F  </i>
   <i type="logical" name="LRHFCALC"> F  </i>
   <i type="logical" name="LTHOMAS"> F  </i>
   <i type="logical" name="LMODELHF"> F  </i>
   <i type="logical" name="LFOCKACE"> F  </i>
   <i name="ENCUT4O">     -1.00000000</i>
   <i type="int" name="EXXOEP">     0</i>
   <i type="int" name="FOURORBIT">     0</i>
   <i name="AEXX">      0.00000000</i>
   <i name="HFALPHA">      0.00000000</i>
   <i name="MCALPHA">      0.00000000</i>
   <i name="ALDAX">      1.00000000</i>
   <i name="AGGAX">      1.00000000</i>
   <i name="ALDAC">      1.00000000</i>
   <i name="AGGAC">      1.00000000</i>
   <i type="int" name="NKREDX">     1</i>
   <i type="int" name="NKREDY">     1</i>
   <i type="int" name="NKREDZ">     1</i>
   <i type="logical" name="SHIFTRED"> F  </i>
   <i type="logical" name="ODDONLY"> F  </i>
   <i type="logical" name="EVENONLY"> F  </i>
   <i type="int" name="LMAXFOCK">     0</i>
   <i type="int" name="NMAXFOCKAE">     0</i>
   <i type="logical" name="LFOCKAEDFT"> F  </i>
   <i name="HFSCREEN">      0.00000000</i>
   <i name="HFSCREENC">      0.00000000</i>
   <i type="int" name="NBANDSGWLOW">     0</i>
  </separator>
  <separator name="vdW DFT" >
   <i type="logical" name="LUSE_VDW"> F  </i>
   <i name="Zab_VDW">     -0.84910000</i>
   <i name="PARAM1">      0.12340000</i>
   <i name="PARAM2">      1.00000000</i>
   <i name="PARAM3">      0.00000000</i>
  </separator>
  <separator name="model GW" >
   <i type="int" name="MODEL_GW">     0</i>
   <i name="MODEL_EPS0">     13.32303066</i>
   <i name="MODEL_ALPHA">      1.00000000</i>
  </separator>
  <separator name="linear response parameters" >
   <i type="logical" name="LEPSILON"> F  </i>
   <i type="logical" name="LRPA"> F  </i>
   <i type="logical" name="LNABLA"> F  </i>
   <i type="logical" name="LVEL"> F  </i>
   <i name="CSHIFT">      0.10000000</i>
   <i name="OMEGAMAX">     -1.00000000</i>
   <i name="DEG_THRESHOLD">      0.00200000</i>
   <i name="RTIME">     -0.10000000</i>
   <i name="WPLASMAI">      0.00000000</i>
   <v name="DFIELD">      0.00000000      0.00000000      0.00000000</v>
   <v name="WPLASMA">      0.00000000      0.00000000      0.00000000      0.00000000      0.00000000      0.00000000      0.00000000      0.00000000      0.00000000</v>
  </separator>
  <separator name="orbital magnetization" >
   <i type="logical" name="NUCIND"> F  </i>
   <v name="MAGPOS">      0.00000000      0.00000000      0.00000000</v>
   <i type="logical" name="LNICSALL"> T  </i>
   <i type="logical" name="ORBITALMAG"> F  </i>
   <i type="logical" name="LMAGBLOCH"> F  </i>
   <i type="logical" name="LCHIMAG"> F  </i>
   <i type="logical" name="LGAUGE"> T  </i>
   <i type="int" name="MAGATOM">     0</i>
   <v name="MAGDIPOL">      0.00000000      0.00000000      0.00000000</v>
   <v name="AVECCONST">      0.00000000      0.00000000      0.00000000</v>
  </separator>
  <separator name="response functions" >
   <i type="logical" name="LFINITE_TEMPERATURE"> F  </i>
   <i type="logical" name="LADDER"> F  </i>
   <i type="logical" name="LRPAFORCE"> F  </i>
   <i type="logical" name="LFXC"> F  </i>
   <i type="logical" name="LHARTREE"> T  </i>
   <i type="int" name="IBSE">     0</i>
   <v type="int" name="KPOINT">    -1     0     0     0</v>
   <i type="logical" name="LTCTC"> F  </i>
   <i type="logical" name="LTCTE"> F  </i>
   <i type="logical" name="LTETE"> F  </i>
   <i type="logical" name="LTRIPLET"> F  </i>
   <i type="logical" name="LFXCEPS"> F  </i>
   <i type="logical" name="LFXHEG"> F  </i>
   <i type="int" name="NATURALO">     2</i>
   <i type="logical" name="LHOLEGF"> F  </i>
   <i type="logical" name="L2ORDER"> F  </i>
   <i type="logical" name="LDMP1"> F  </i>
   <i type="logical" name="LMP2LT"> F  </i>
   <i type="logical" name="LSMP2LT"> F  </i>
   <i type="logical" name="LGWLF"> F  </i>
   <i name="ENCUTGW">     -2.00000000</i>
   <i name="ENCUTGWSOFT">     -2.00000000</i>
   <i name="ENCUTLF">     -1.00000000</i>
   <i type="logical" name="LESF_SPLINES"> F  </i>
   <i type="int" name="LMAXMP2">    -1</i>
   <i name="SCISSOR">      0.00000000</i>
   <i type="int" name="NOMEGA">     0</i>
   <i type="int" name="NOMEGAR">     0</i>
   <i type="int" name="NBANDSGW">    -1</i>
   <i type="int" name="NBANDSO">    -1</i>
   <i type="int" name="NBANDSV">    -1</i>
   <i type="int" name="NELMGW">     1</i>
   <i type="int" name="NELMHF">     1</i>
   <i type="int" name="DIM">     3</i>
   <i type="int" name="IESPILON">     4</i>
   <i type="int" name="ANTIRES">     0</i>
   <i name="OMEGAMAX">    -30.00000000</i>
   <i name="OMEGAMIN">    -30.00000000</i>
   <i name="OMEGATL">   -200.00000000</i>
   <i type="int" name="OMEGAGRID">     0</i>
   <i name="CSHIFT">     -0.10000000</i>
   <i type="logical" name="LSELFENERGY"> F  </i>
   <i type="logical" name="LSPECTRAL"> F  </i>
   <i type="logical" name="LSPECTRALGW"> F  </i>
   <i type="logical" name="LSINGLES"> F  </i>
   <i type="logical" name="LFERMIGW"> F  </i>
   <i type="logical" name="ODDONLYGW"> F  </i>
   <i type="logical" name="EVENONLYGW"> F  </i>
   <i type="int" name="NKREDLFX">     1</i>
   <i type="int" name="NKREDLFY">     1</i>
   <i type="int" name="NKREDLFZ">     1</i>
   <i type="int" name="MAXMEM">  2800</i>
   <i type="int" name="TELESCOPE">     0</i>
   <i type="int" name="NTAUPAR">    -1</i>
   <i type="int" name="NOMEGAPAR">    -1</i>
   <i name="DAMP_NEWTON">      0.80000001</i>
   <i name="LAMBDA">      1.00000000</i>
  </separator>
  <separator name="External order field" >
   <i name="OFIELD_KAPPA">      0.00000000</i>
   <v name="OFIELD_K">      0.00000000      0.00000000      0.00000000</v>
   <i name="OFIELD_Q6_NEAR">      0.00000000</i>
   <i name="OFIELD_Q6_FAR">      0.00000000</i>
   <i name="OFIELD_A">      0.00000000</i>
  </separator>
  <separator name="optional k-points parameters" >
   <i type="int" name="KPOINTS_OPT_MODE">     1</i>
   <i type="logical" name="LKPOINTS_OPT"> F  </i>
  </separator>
 </parameters>
 <atominfo>
  <atoms>      48 </atoms>
  <types>       5 </types>
  <array name="atoms" >
   <dimension dim="1">ion</dimension>
   <field type="string">element</field>
   <field type="int">atomtype</field>
   <set>
    <rc><c>C </c><c>   1</c></rc>
    <rc><c>C </c><c>   1</c></rc>
    <rc><c>C </c><c>   1</c></rc>
    <rc><c>C </c><c>   1</c></rc>
    <rc><c>H </c><c>   2</c></rc>
    <rc><c>H </c><c>   2</c></rc>
    <rc><c>H </c><c>   2</c></rc>
    <rc><c>H </c><c>   2</c></rc>
    <rc><c>H </c><c>   2</c></rc>
    <rc><c>H </c><c>   2</c></rc>
    <rc><c>H </c><c>   2</c></rc>
    <rc><c>H </c><c>   2</c></rc>
    <rc><c>H </c><c>   2</c></rc>
    <rc><c>H </c><c>   2</c></rc>
    <rc><c>H </c><c>   2</c></rc>
    <rc><c>H </c><c>   2</c></rc>
    <rc><c>H </c><c>   2</c></rc>
    <rc><c>H </c><c>   2</c></rc>
    <rc><c>H </c><c>   2</c></rc>
    <rc><c>H </c><c>   2</c></rc>
    <rc><c>H </c><c>   2</c></rc>
    <rc><c>H </c><c>   2</c></rc>
    <rc><c>H </c><c>   2</c></rc>
    <rc><c>H </c><c>   2</c></rc>
    <rc><c>I </c><c>   3</c></rc>
    <rc><c>I </c><c>   3</c></rc>
    <rc><c>I </c><c>   3</c></rc>
    <rc><c>I </c><c>   3</c></rc>
    <rc><c>I </c><c>   3</c></rc>
    <rc><c>I </c><c>   3</c></rc>
    <rc><c>I </c><c>   3</c></rc>
    <rc><c>I </c><c>   3</c></rc>
    <rc><c>I </c><c>   3</c></rc>
    <rc><c>I </c><c>   3</c></rc>
    <rc><c>I </c><c>   3</c></rc>
    <rc><c>I </c><c>   3</c></rc>
    <rc><c>N </c><c>   4</c></rc>
    <rc><c>N </c><c>   4</c></rc>
    <rc><c>N </c><c>   4</c></rc>
    <rc><c>N </c><c>   4</c></rc>
    <rc><c>N </c><c>   4</c></rc>
    <rc><c>N </c><c>   4</c></rc>
    <rc><c>N </c><c>   4</c></rc>
    <rc><c>N </c><c>   4</c></rc>
    <rc><c>Sn</c><c>   5</c></rc>
    <rc><c>Sn</c><c>   5</c></rc>
    <rc><c>Sn</c><c>   5</c></rc>
    <rc><c>Sn</c><c>   5</c></rc>
   </set>
  </array>
  <array name="atomtypes" >
   <dimension dim="1">type</dimension>
   <field type="int">atomspertype</field>
   <field type="string">element</field>
   <field>mass</field>
   <field>valence</field>
   <field type="string">pseudopotential</field>
   <set>
    <rc><c>   4</c><c>C </c><c>     12.01100000</c><c>      4.00000000</c><c>  PAW_PBE C 08Apr2002                   </c></rc>
    <rc><c>  20</c><c>H </c><c>      1.00000000</c><c>      1.00000000</c><c>  PAW_PBE H 15Jun2001                   </c></rc>
    <rc><c>  12</c><c>I </c><c>    126.90400000</c><c>      7.00000000</c><c>  PAW_PBE I 08Apr2002                   </c></rc>
    <rc><c>   8</c><c>N </c><c>     14.00100000</c><c>      5.00000000</c><c>  PAW_PBE N 08Apr2002                   </c></rc>
    <rc><c>   4</c><c>Sn</c><c>    118.71000000</c><c>      4.00000000</c><c>  PAW_PBE Sn 08Apr2002                  </c></rc>
   </set>
  </array>
 </atominfo>
 <structure name="initialpos" >
  <crystal>
   <varray name="basis" >
    <v>      14.63700000       0.00000000       0.00000000 </v>
    <v>       0.00000000       8.78600000       0.00000000 </v>
    <v>       0.00000000       0.00000000       8.28800000 </v>
   </varray>
   <i name="volume">   1065.84245242 </i>
   <varray name="rec_basis" >
    <v>       0.06832001       0.00000000       0.00000000 </v>
    <v>       0.00000000       0.11381744       0.00000000 </v>
    <v>       0.00000000       0.00000000       0.12065637 </v>
   </varray>
  </crystal>
  <varray name="positions" >
   <v>       0.65646743       0.53879834       0.27041478 </v>
   <v>       0.34135323       0.48869209       0.80474680 </v>
   <v>       0.84560662       0.03426624       0.77006606 </v>
   <v>       0.17382611       0.03638576       0.21775009 </v>
   <v>       0.65921374       0.42563255       0.05303538 </v>
   <v>       0.65487989       0.31350676       0.33123189 </v>
   <v>       0.65031646       0.44285606       0.49008031 </v>
   <v>       0.66323545       0.62179044       0.04448849 </v>
   <v>       0.65591618       0.65253139       0.32179247 </v>
   <v>       0.34144022       0.65554831       0.63335617 </v>
   <v>       0.45063023       0.62267187       0.85873148 </v>
   <v>       0.42740536       0.47256015       0.99176947 </v>
   <v>       0.25839538       0.51711670       0.61298193 </v>
   <v>       0.30511048       0.38725959       0.84295868 </v>
   <v>       0.85640989       0.84747110       0.91466567 </v>
   <v>       0.83914024       0.85147927       0.61879596 </v>
   <v>       0.83124090       0.02771834       0.52760744 </v>
   <v>       0.86321838       0.02385357       0.01040918 </v>
   <v>       0.84502978       0.15796180       0.77219503 </v>
   <v>       0.14035905       0.93554696       0.43320798 </v>
   <v>       0.17874271       0.80825187       0.17022383 </v>
   <v>       0.20506846       0.92945513       0.01092195 </v>
   <v>       0.14488498       0.13235415       0.43176887 </v>
   <v>       0.18403349       0.14726510       0.16294620 </v>
   <v>       0.58910000       0.23970000       0.79700000 </v>
   <v>       0.41090000       0.76030000       0.29700000 </v>
   <v>       0.91090000       0.73970000       0.29700000 </v>
   <v>       0.08910000       0.26030000       0.79700000 </v>
   <v>       0.33402000       0.99870000       0.75710000 </v>
   <v>       0.66598000       0.00130000       0.25710000 </v>
   <v>       0.16598000       0.49870000       0.25710000 </v>
   <v>       0.83402000       0.50130000       0.75710000 </v>
   <v>       0.41170000       0.24010000       0.20500000 </v>
   <v>       0.58830000       0.75990000       0.70500000 </v>
   <v>       0.08830000       0.74010000       0.70500000 </v>
   <v>       0.91170000       0.25990000       0.20500000 </v>
   <v>       0.65372597       0.42344238       0.36999223 </v>
   <v>       0.65943845       0.52678832       0.11290430 </v>
   <v>       0.40892814       0.53630840       0.89482899 </v>
   <v>       0.31405568       0.55605181       0.67248316 </v>
   <v>       0.83736115       0.96646138       0.63024928 </v>
   <v>       0.85430801       0.96254963       0.90766548 </v>
   <v>       0.18389799       0.91616941       0.12649111 </v>
   <v>       0.15198832       0.03335273       0.37108857 </v>
   <v>       0.50000000       0.00260000       0.00000000 </v>
   <v>       0.50000000       0.99740000       0.50000000 </v>
   <v>       0.00000000       0.50260000       0.50000000 </v>
   <v>       0.00000000       0.49740000       0.00000000 </v>
  </varray>
  <varray name="selective"  type="logical" >
   <v type="logical" >  T  T  T </v>
   <v type="logical" >  T  T  T </v>
   <v type="logical" >  T  T  T </v>
   <v type="logical" >  T  T  T </v>
   <v type="logical" >  T  T  T </v>
   <v type="logical" >  T  T  T </v>
   <v type="logical" >  T  T  T </v>
   <v type="logical" >  T  T  T </v>
   <v type="logical" >  T  T  T </v>
   <v type="logical" >  T  T  T </v>
   <v type="logical" >  T  T  T </v>
   <v type="logical" >  T  T  T </v>
   <v type="logical" >  T  T  T </v>
   <v type="logical" >  T  T  T </v>
   <v type="logical" >  T  T  T </v>
   <v type="logical" >  T  T  T </v>
   <v type="logical" >  T  T  T </v>
   <v type="logical" >  T  T  T </v>
   <v type="logical" >  T  T  T </v>
   <v type="logical" >  T  T  T </v>
   <v type="logical" >  T  T  T </v>
   <v type="logical" >  T  T  T </v>
   <v type="logical" >  T  T  T </v>
   <v type="logical" >  T  T  T </v>
   <v type="logical" >  F  F  F </v>
   <v type="logical" >  F  F  F </v>
   <v type="logical" >  F  F  F </v>
   <v type="logical" >  F  F  F </v>
   <v type="logical" >  F  F  F </v>
   <v type="logical" >  F  F  F </v>
   <v type="logical" >  F  F  F </v>
   <v type="logical" >  F  F  F </v>
   <v type="logical" >  F  F  F </v>
   <v type="logical" >  F  F  F </v>
   <v type="logical" >  F  F  F </v>
   <v type="logical" >  F  F  F </v>
   <v type="logical" >  T  T  T </v>
   <v type="logical" >  T  T  T </v>
   <v type="logical" >  T  T  T </v>
   <v type="logical" >  T  T  T </v>
   <v type="logical" >  T  T  T </v>
   <v type="logical" >  T  T  T </v>
   <v type="logical" >  T  T  T </v>
   <v type="logical" >  T  T  T </v>
   <v type="logical" >  F  F  F </v>
   <v type="logical" >  F  F  F </v>
   <v type="logical" >  F  F  F </v>
   <v type="logical" >  F  F  F </v>
  </varray>
  <nose>
   <v>      -3.00000000       0.00000000       0.00010000       0.00010000 </v>
  </nose>
 </structure>
 <calculation>
  <scstep>
   <time name="total">   11.77   12.08</time>
   <energy>
    <i name="alphaZ">    108.40866624 </i>
    <i name="ewald">  -4394.74324772 </i>
    <i name="hartreedc">  -2244.58000937 </i>
    <i name="XCdc">   -174.41550575 </i>
    <i name="pawpsdc">   5935.95709371 </i>
    <i name="pawaedc">  -5630.49819540 </i>
    <i name="eentropy">     -0.01220617 </i>
    <i name="bandstr">    111.59291483 </i>
    <i name="atom">   7121.46799656 </i>
    <i name="e_fr_energy">    833.17750692 </i>
    <i name="e_wo_entrp">    833.18971309 </i>
    <i name="e_0_energy">    833.18361000 </i>
   </energy>
  </scstep>
  <scstep>
   <time name="total">   12.54   12.55</time>
   <energy>
    <i name="e_fr_energy">   -463.84659487 </i>
    <i name="e_wo_entrp">   -463.84659487 </i>
    <i name="e_0_energy">   -463.84659487 </i>
   </energy>
  </scstep>
  <scstep>
   <time name="total">   12.28   12.29</time>
   <energy>
    <i name="e_fr_energy">   -638.81740987 </i>
    <i name="e_wo_entrp">   -638.81740987 </i>
    <i name="e_0_energy">   -638.81740987 </i>
   </energy>
  </scstep>
  <scstep>
   <time name="total">   12.08   12.09</time>
   <energy>
    <i name="e_fr_energy">   -644.00587047 </i>
    <i name="e_wo_entrp">   -644.00587047 </i>
    <i name="e_0_energy">   -644.00587047 </i>
   </energy>
  </scstep>
  <scstep>
   <time name="total">   14.26   14.27</time>
   <energy>
    <i name="e_fr_energy">   -644.16466272 </i>
    <i name="e_wo_entrp">   -644.16466272 </i>
    <i name="e_0_energy">   -644.16466272 </i>
   </energy>
  </scstep>
  <scstep>
   <time name="total">   14.30   14.31</time>
   <energy>
    <i name="e_fr_energy">   -581.15124263 </i>
    <i name="e_wo_entrp">   -581.15124263 </i>
    <i name="e_0_energy">   -581.15124263 </i>
   </energy>
  </scstep>
  <scstep>
   <time name="total">   14.28   14.28</time>
   <energy>
    <i name="e_fr_energy">   -591.67091911 </i>
    <i name="e_wo_entrp">   -591.67091911 </i>
    <i name="e_0_energy">   -591.67091911 </i>
   </energy>
  </scstep>
  <scstep>
   <time name="total">   14.29   14.30</time>
   <energy>
    <i name="e_fr_energy">   -593.04243993 </i>
    <i name="e_wo_entrp">   -593.04243993 </i>
    <i name="e_0_energy">   -593.04243993 </i>
   </energy>
  </scstep>
  <scstep>
   <time name="total">   14.29   14.29</time>
   <energy>
    <i name="e_fr_energy">   -593.47710446 </i>
    <i name="e_wo_entrp">   -593.47710446 </i>
    <i name="e_0_energy">   -593.47710446 </i>
   </energy>
  </scstep>
  <scstep>
   <time name="total">   14.30   14.30</time>
   <energy>
    <i name="e_fr_energy">   -593.60598652 </i>
    <i name="e_wo_entrp">   -593.60598652 </i>
    <i name="e_0_energy">   -593.60598652 </i>
   </energy>
  </scstep>
  <scstep>
   <time name="total">   14.29   14.30</time>
   <energy>
    <i name="e_fr_energy">   -593.64733738 </i>
    <i name="e_wo_entrp">   -593.64733738 </i>
    <i name="e_0_energy">   -593.64733738 </i>
   </energy>
  </scstep>
  <scstep>
   <time name="total">   14.30   14.30</time>
   <energy>
    <i name="e_fr_energy">   -593.65864432 </i>
    <i name="e_wo_entrp">   -593.65864432 </i>
    <i name="e_0_energy">   -593.65864432 </i>
   </energy>
  </scstep>
  <scstep>
   <time name="total">   14.28   14.29</time>
   <energy>
    <i name="e_fr_energy">   -593.66143769 </i>
    <i name="e_wo_entrp">   -593.66143769 </i>
    <i name="e_0_energy">   -593.66143769 </i>
   </energy>
  </scstep>
  <scstep>
   <time name="total">   14.29   14.30</time>
   <energy>
    <i name="e_fr_energy">   -593.66214172 </i>
    <i name="e_wo_entrp">   -593.66214172 </i>
    <i name="e_0_energy">   -593.66214172 </i>
   </energy>
  </scstep>
  <scstep>
   <time name="total">   14.29   14.30</time>
   <energy>
    <i name="e_fr_energy">   -593.66229649 </i>
    <i name="e_wo_entrp">   -593.66229649 </i>
    <i name="e_0_energy">   -593.66229649 </i>
   </energy>
  </scstep>
  <scstep>
   <time name="total">   14.29   14.30</time>
   <energy>
    <i name="e_fr_energy">   -593.66233510 </i>
    <i name="e_wo_entrp">   -593.66233510 </i>
    <i name="e_0_energy">   -593.66233510 </i>
   </energy>
  </scstep>
  <scstep>
   <time name="total">   14.29   14.29</time>
   <energy>
    <i name="e_fr_energy">   -593.66234558 </i>
    <i name="e_wo_entrp">   -593.66234558 </i>
    <i name="e_0_energy">   -593.66234558 </i>
   </energy>
  </scstep>
  <scstep>
   <time name="total">   16.53   16.53</time>
   <energy>
    <i name="alphaZ">    108.40866624 </i>
    <i name="ewald">  -4394.74324772 </i>
    <i name="hartreedc">  -2474.47287986 </i>
    <i name="XCdc">   -143.76043130 </i>
    <i name="pawpsdc">  12924.51599985 </i>
    <i name="pawaedc"> -12624.42688674 </i>
    <i name="eentropy">     -0.00000000 </i>
    <i name="bandstr">  -1110.65156490 </i>
    <i name="atom">   7121.46799656 </i>
    <i name="e_fr_energy">   -593.66234788 </i>
    <i name="e_wo_entrp">   -593.66234788 </i>
    <i name="e_0_energy">   -593.66234788 </i>
   </energy>
  </scstep>
  <structure>
   <crystal>
    <varray name="basis" >
     <v>      14.63700000       0.00000000       0.00000000 </v>
     <v>       0.00000000       8.78600000       0.00000000 </v>
     <v>       0.00000000       0.00000000       8.28800000 </v>
    </varray>
    <i name="volume">   1065.84245242 </i>
    <varray name="rec_basis" >
     <v>       0.06832001       0.00000000       0.00000000 </v>
     <v>       0.00000000       0.11381744       0.00000000 </v>
     <v>       0.00000000       0.00000000       0.12065637 </v>
    </varray>
   </crystal>
   <varray name="positions" >
    <v>       0.65646743       0.53879834       0.27041478 </v>
    <v>       0.34135323       0.48869209       0.80474680 </v>
    <v>       0.84560662       0.03426624       0.77006606 </v>
    <v>       0.17382611       0.03638576       0.21775009 </v>
    <v>       0.65921374       0.42563255       0.05303538 </v>
    <v>       0.65487989       0.31350676       0.33123189 </v>
    <v>       0.65031646       0.44285606       0.49008031 </v>
    <v>       0.66323545       0.62179044       0.04448849 </v>
    <v>       0.65591618       0.65253139       0.32179247 </v>
    <v>       0.34144022       0.65554831       0.63335617 </v>
    <v>       0.45063023       0.62267187       0.85873148 </v>
    <v>       0.42740536       0.47256015       0.99176947 </v>
    <v>       0.25839538       0.51711670       0.61298193 </v>
    <v>       0.30511048       0.38725959       0.84295868 </v>
    <v>       0.85640989       0.84747110       0.91466567 </v>
    <v>       0.83914024       0.85147927       0.61879596 </v>
    <v>       0.83124090       0.02771834       0.52760744 </v>
    <v>       0.86321838       0.02385357       0.01040918 </v>
    <v>       0.84502978       0.15796180       0.77219503 </v>
    <v>       0.14035905       0.93554696       0.43320798 </v>
    <v>       0.17874271       0.80825187       0.17022383 </v>
    <v>       0.20506846       0.92945513       0.01092195 </v>
    <v>       0.14488498       0.13235415       0.43176887 </v>
    <v>       0.18403349       0.14726510       0.16294620 </v>
    <v>       0.58910000       0.23970000       0.79700000 </v>
    <v>       0.41090000       0.76030000       0.29700000 </v>
    <v>       0.91090000       0.73970000       0.29700000 </v>
    <v>       0.08910000       0.26030000       0.79700000 </v>
    <v>       0.33402000       0.99870000       0.75710000 </v>
    <v>       0.66598000       0.00130000       0.25710000 </v>
    <v>       0.16598000       0.49870000       0.25710000 </v>
    <v>       0.83402000       0.50130000       0.75710000 </v>
    <v>       0.41170000       0.24010000       0.20500000 </v>
    <v>       0.58830000       0.75990000       0.70500000 </v>
    <v>       0.08830000       0.74010000       0.70500000 </v>
    <v>       0.91170000       0.25990000       0.20500000 </v>
    <v>       0.65372597       0.42344238       0.36999223 </v>
    <v>       0.65943845       0.52678832       0.11290430 </v>
    <v>       0.40892814       0.53630840       0.89482899 </v>
    <v>       0.31405568       0.55605181       0.67248316 </v>
    <v>       0.83736115       0.96646138       0.63024928 </v>
    <v>       0.85430801       0.96254963       0.90766548 </v>
    <v>       0.18389799       0.91616941       0.12649111 </v>
    <v>       0.15198832       0.03335273       0.37108857 </v>
    <v>       0.50000000       0.00260000       0.00000000 </v>
    <v>       0.50000000       0.99740000       0.50000000 </v>
    <v>       0.00000000       0.50260000       0.50000000 </v>
    <v>       0.00000000       0.49740000       0.00000000 </v>
   </varray>
  </structure>
  <varray name="forces" >
   <v>      -0.01085489      -0.01180536       0.04928216 </v>
   <v>       0.00568688       0.05802240       0.06574778 </v>
   <v>       0.00824161      -0.04472819       0.00409429 </v>
   <v>      -0.01429393       0.01980290       0.01593761 </v>
   <v>      -0.00188825       0.01873775       0.04829601 </v>
   <v>      -0.00303246      -0.02337990       0.01930019 </v>
   <v>       0.00019101       0.00112782       0.01904764 </v>
   <v>       0.00088281      -0.00412262       0.02232420 </v>
   <v>       0.00807907       0.01131612      -0.02356291 </v>
   <v>       0.02032050      -0.02781705      -0.03294844 </v>
   <v>      -0.03242741      -0.01803168       0.01828567 </v>
   <v>      -0.03100834       0.00816816       0.00491409 </v>
   <v>       0.06124508       0.01759996       0.03861691 </v>
   <v>      -0.04492028      -0.05924696       0.01113681 </v>
   <v>       0.00571978       0.00950237      -0.02058840 </v>
   <v>      -0.00521021       0.03048568      -0.03693713 </v>
   <v>      -0.01069409      -0.02990731       0.02698923 </v>
   <v>       0.00701328      -0.00230613       0.00771532 </v>
   <v>       0.00202822       0.00035954       0.04376029 </v>
   <v>      -0.00277733       0.00325274       0.01804093 </v>
   <v>      -0.00638318      -0.00167016       0.00279325 </v>
   <v>      -0.00629314       0.01049817      -0.02063175 </v>
   <v>      -0.00043024      -0.00728843       0.00016682 </v>
   <v>      -0.01028102       0.01077410      -0.01483811 </v>
   <v>       0.15969746       0.05652048      -0.03309459 </v>
   <v>       0.06059503      -0.00123236       0.03902440 </v>
   <v>      -0.02452870       0.01606735      -0.11454619 </v>
   <v>       0.08707160      -0.07498818      -0.06917632 </v>
   <v>       0.00662571      -0.03107992       0.01555493 </v>
   <v>       0.09412919       0.02844242       0.02801331 </v>
   <v>       0.09433812      -0.00854309       0.04278992 </v>
   <v>      -0.06614236       0.13597135      -0.00747642 </v>
   <v>       0.00932199       0.01160635       0.01103302 </v>
   <v>       0.19497756      -0.17986766       0.01699291 </v>
   <v>      -0.05213694       0.11414382      -0.03095580 </v>
   <v>      -0.07557927      -0.06665522       0.04738548 </v>
   <v>       0.00758297       0.00320112      -0.03861438 </v>
   <v>       0.00358086       0.01763690      -0.05422332 </v>
   <v>      -0.02228822      -0.03280216      -0.02790607 </v>
   <v>      -0.05648185      -0.04016342      -0.08646046 </v>
   <v>      -0.00421368       0.00131056       0.02268746 </v>
   <v>      -0.00006332       0.00979205      -0.02818397 </v>
   <v>      -0.01653192      -0.01234578       0.03846733 </v>
   <v>       0.00344188      -0.02938068      -0.01796471 </v>
   <v>      -0.14644485       0.05183429       0.04766980 </v>
   <v>      -0.15260486       0.06644108      -0.09857032 </v>
   <v>      -0.03495975      -0.00030418       0.02241605 </v>
   <v>      -0.00830012      -0.00494902       0.00819547 </v>
  </varray>
  <energy>
   <i name="e_fr_energy">   -593.66234788 </i>
   <i name="e_wo_entrp">   -593.66234788 </i>
   <i name="e_0_energy">   -593.66234788 </i>
  </energy>
  <time name="totalsc">  257.40  257.85</time>
 </calculation>
 <calculation>
  <scstep>
   <time name="total">   14.36   14.36</time>
   <energy>
    <i name="alphaZ">    108.40866624 </i>
    <i name="ewald">  -4393.82485821 </i>
    <i name="hartreedc">  -2474.68057059 </i>
    <i name="XCdc">   -143.74699056 </i>
    <i name="pawpsdc">  12931.13439804 </i>
    <i name="pawaedc"> -12631.04600839 </i>
    <i name="eentropy">     -0.00000000 </i>
    <i name="bandstr">  -1111.33043142 </i>
    <i name="atom">   7121.46799656 </i>
    <i name="e_fr_energy">   -593.61779834 </i>
    <i name="e_wo_entrp">   -593.61779834 </i>
    <i name="e_0_energy">   -593.61779834 </i>
   </energy>
  </scstep>
  <scstep>
   <time name="total">   14.30   14.30</time>
   <energy>
    <i name="e_fr_energy">   -593.64981072 </i>
    <i name="e_wo_entrp">   -593.64981072 </i>
    <i name="e_0_energy">   -593.64981072 </i>
   </energy>
  </scstep>
  <scstep>
   <time name="total">   14.29   14.30</time>
   <energy>
    <i name="e_fr_energy">   -593.65787613 </i>
    <i name="e_wo_entrp">   -593.65787613 </i>
    <i name="e_0_energy">   -593.65787613 </i>
   </energy>
  </scstep>
  <scstep>
   <time name="total">   14.29   14.29</time>
   <energy>
    <i name="e_fr_energy">   -593.65910275 </i>
    <i name="e_wo_entrp">   -593.65910275 </i>
    <i name="e_0_energy">   -593.65910275 </i>
   </energy>
  </scstep>
  <scstep>
   <time name="total">   14.27   14.28</time>
   <energy>
    <i name="e_fr_energy">   -593.65934063 </i>
    <i name="e_wo_entrp">   -593.65934063 </i>
    <i name="e_0_energy">   -593.65934063 </i>
   </energy>
  </scstep>
  <scstep>
   <time name="total">   14.27   14.28</time>
   <energy>
    <i name="e_fr_energy">   -593.65939945 </i>
    <i name="e_wo_entrp">   -593.65939945 </i>
    <i name="e_0_energy">   -593.65939945 </i>
   </energy>
  </scstep>
  <scstep>
   <time name="total">   14.28   14.28</time>
   <energy>
    <i name="e_fr_energy">   -593.65941803 </i>
    <i name="e_wo_entrp">   -593.65941803 </i>
    <i name="e_0_energy">   -593.65941803 </i>
   </energy>
  </scstep>
  <scstep>
   <time name="total">   14.28   14.29</time>
   <energy>
    <i name="e_fr_energy">   -593.65942428 </i>
    <i name="e_wo_entrp">   -593.65942428 </i>
    <i name="e_0_energy">   -593.65942428 </i>
   </energy>
  </scstep>
  <scstep>
   <time name="total">   16.49   16.50</time>
   <energy>
    <i name="alphaZ">    108.40866624 </i>
    <i name="ewald">  -4393.82485821 </i>
    <i name="hartreedc">  -2475.18151168 </i>
    <i name="XCdc">   -143.72657570 </i>
    <i name="pawpsdc">  12931.00548491 </i>
    <i name="pawaedc"> -12630.91925558 </i>
    <i name="eentropy">     -0.00000000 </i>
    <i name="bandstr">  -1110.88937252 </i>
    <i name="atom">   7121.46799656 </i>
    <i name="e_fr_energy">   -593.65942598 </i>
    <i name="e_wo_entrp">   -593.65942598 </i>
    <i name="e_0_energy">   -593.65942598 </i>
   </energy>
  </scstep>
  <structure>
   <crystal>
    <varray name="basis" >
     <v>      14.63700000       0.00000000       0.00000000 </v>
     <v>       0.00000000       8.78600000       0.00000000 </v>
     <v>       0.00000000       0.00000000       8.28800000 </v>
    </varray>
    <i name="volume">   1065.84245242 </i>
    <varray name="rec_basis" >
     <v>       0.06832001       0.00000000       0.00000000 </v>
     <v>       0.00000000       0.11381744       0.00000000 </v>
     <v>       0.00000000       0.00000000       0.12065637 </v>
    </varray>
   </crystal>
   <varray name="positions" >
    <v>       0.65643165       0.53873352       0.27070164 </v>
    <v>       0.34137198       0.48901068       0.80512950 </v>
    <v>       0.84563379       0.03402064       0.77008989 </v>
    <v>       0.17377900       0.03649450       0.21784286 </v>
    <v>       0.65920752       0.42573544       0.05331650 </v>
    <v>       0.65486989       0.31337839       0.33134423 </v>
    <v>       0.65031709       0.44286225       0.49019118 </v>
    <v>       0.66323836       0.62176780       0.04461843 </v>
    <v>       0.65594281       0.65259353       0.32165532 </v>
    <v>       0.34150719       0.65539557       0.63316439 </v>
    <v>       0.45052335       0.62257286       0.85883792 </v>
    <v>       0.42730316       0.47260500       0.99179807 </v>
    <v>       0.25859724       0.51721334       0.61320671 </v>
    <v>       0.30496243       0.38693428       0.84302351 </v>
    <v>       0.85642874       0.84752327       0.91454583 </v>
    <v>       0.83912307       0.85164666       0.61858096 </v>
    <v>       0.83120566       0.02755413       0.52776454 </v>
    <v>       0.86324149       0.02384091       0.01045409 </v>
    <v>       0.84503647       0.15796378       0.77244975 </v>
    <v>       0.14034990       0.93556482       0.43331300 </v>
    <v>       0.17872167       0.80824270       0.17024009 </v>
    <v>       0.20504772       0.92951277       0.01080186 </v>
    <v>       0.14488356       0.13231413       0.43176984 </v>
    <v>       0.18399961       0.14732426       0.16285983 </v>
    <v>       0.58910000       0.23970000       0.79700000 </v>
    <v>       0.41090000       0.76030000       0.29700000 </v>
    <v>       0.91090000       0.73970000       0.29700000 </v>
    <v>       0.08910000       0.26030000       0.79700000 </v>
    <v>       0.33402000       0.99870000       0.75710000 </v>
    <v>       0.66598000       0.00130000       0.25710000 </v>
    <v>       0.16598000       0.49870000       0.25710000 </v>
    <v>       0.83402000       0.50130000       0.75710000 </v>
    <v>       0.41170000       0.24010000       0.20500000 </v>
    <v>       0.58830000       0.75990000       0.70500000 </v>
    <v>       0.08830000       0.74010000       0.70500000 </v>
    <v>       0.91170000       0.25990000       0.20500000 </v>
    <v>       0.65375097       0.42345995       0.36976746 </v>
    <v>       0.65945025       0.52688516       0.11258868 </v>
    <v>       0.40885468       0.53612829       0.89466655 </v>
    <v>       0.31386952       0.55583127       0.67197989 </v>
    <v>       0.83734726       0.96646858       0.63038134 </v>
    <v>       0.85430780       0.96260340       0.90750142 </v>
    <v>       0.18384350       0.91610162       0.12671502 </v>
    <v>       0.15199967       0.03319141       0.37098401 </v>
    <v>       0.50000000       0.00260000       0.00000000 </v>
    <v>       0.50000000       0.99740000       0.50000000 </v>
    <v>       0.00000000       0.50260000       0.50000000 </v>
    <v>       0.00000000       0.49740000       0.00000000 </v>
   </varray>
  </structure>
  <varray name="forces" >
   <v>       0.01436869       0.08290671      -0.32337647 </v>
   <v>      -0.36389874      -0.15305887      -0.25442940 </v>
   <v>      -0.00267244       0.17754677      -0.01449942 </v>
   <v>       0.00854717      -0.05454742      -0.07286478 </v>
   <v>       0.00110077      -0.04784788      -0.02038914 </v>
   <v>      -0.00147495      -0.00958001       0.00011951 </v>
   <v>       0.00593753      -0.01990987      -0.08825358 </v>
   <v>       0.00885089       0.08968431      -0.05493936 </v>
   <v>       0.00363441       0.01099720       0.00336030 </v>
   <v>      -0.02567943      -0.07245791      -0.04372320 </v>
   <v>      -0.01714246       0.00287232       0.00946660 </v>
   <v>      -0.03604497       0.00061880       0.01041101 </v>
   <v>      -0.23780024      -0.11169306      -0.13305204 </v>
   <v>       0.03701175       0.08862710      -0.01150164 </v>
   <v>       0.00570989       0.00648959      -0.01615528 </v>
   <v>      -0.00250149      -0.02230525      -0.02670847 </v>
   <v>      -0.01287989       0.00811689       0.00062863 </v>
   <v>       0.00075351      -0.01913554      -0.03887229 </v>
   <v>       0.00305473      -0.06945029       0.02747884 </v>
   <v>      -0.00188080      -0.02195332       0.01134985 </v>
   <v>      -0.01167443      -0.03740157       0.02920203 </v>
   <v>      -0.04496741      -0.01038009       0.09894101 </v>
   <v>       0.00419659      -0.05753998      -0.02416807 </v>
   <v>      -0.01434002       0.00422741      -0.00311819 </v>
   <v>       0.15791038       0.05572420      -0.03576985 </v>
   <v>       0.06096470      -0.00115772       0.03663122 </v>
   <v>      -0.02514555       0.01715979      -0.11416366 </v>
   <v>       0.08667729      -0.07550442      -0.06876849 </v>
   <v>       0.00674034      -0.03165215       0.01663504 </v>
   <v>       0.09518714       0.03024223       0.02903947 </v>
   <v>       0.09322263      -0.00977954       0.04060091 </v>
   <v>      -0.06599498       0.13464935      -0.00909177 </v>
   <v>       0.00909769       0.01372832       0.00997522 </v>
   <v>       0.19239669      -0.18082252       0.01682673 </v>
   <v>      -0.05364377       0.11511320      -0.03109318 </v>
   <v>      -0.07600025      -0.06855092       0.04723963 </v>
   <v>      -0.00836183      -0.08357884       0.20513390 </v>
   <v>      -0.01818032      -0.00953399       0.32377194 </v>
   <v>       0.13621005       0.06051600       0.09198614 </v>
   <v>       0.41106691       0.08775562       0.32451867 </v>
   <v>      -0.01033549      -0.03637081      -0.04988068 </v>
   <v>       0.02390974      -0.06867490       0.13780439 </v>
   <v>       0.03244826       0.08029259      -0.12918185 </v>
   <v>      -0.02628282       0.09251170       0.11133905 </v>
   <v>      -0.14751908       0.05188053       0.04623895 </v>
   <v>      -0.15353091       0.06591018      -0.09638933 </v>
   <v>      -0.03394536      -0.00015530       0.02406281 </v>
   <v>      -0.00710014      -0.00452863       0.00762831 </v>
  </varray>
  <energy>
   <i name="e_fr_energy">   -593.65942598 </i>
   <i name="e_wo_entrp">   -593.65942598 </i>
   <i name="e_0_energy">   -593.65942598 </i>
  </energy>
  <time name="totalsc">  137.28  137.35</time>
 </calculation>
 <calculation>
  <scstep>
   <time name="total">   14.30   14.30</time>
   <energy>
    <i name="alphaZ">    108.40866624 </i>
    <i name="ewald">  -4394.50549478 </i>
    <i name="hartreedc">  -2475.00216650 </i>
    <i name="XCdc">   -143.73809441 </i>
    <i name="pawpsdc">  12935.60426067 </i>
    <i name="pawaedc"> -12635.51636675 </i>
    <i name="eentropy">     -0.00000000 </i>
    <i name="bandstr">  -1110.35885851 </i>
    <i name="atom">   7121.46799656 </i>
    <i name="e_fr_energy">   -593.64005748 </i>
    <i name="e_wo_entrp">   -593.64005748 </i>
    <i name="e_0_energy">   -593.64005748 </i>
   </energy>
  </scstep>
  <scstep>
   <time name="total">   14.29   14.29</time>
   <energy>
    <i name="e_fr_energy">   -593.65750846 </i>
    <i name="e_wo_entrp">   -593.65750846 </i>
    <i name="e_0_energy">   -593.65750846 </i>
   </energy>
  </scstep>
  <scstep>
   <time name="total">   14.27   14.28</time>
   <energy>
    <i name="e_fr_energy">   -593.66192609 </i>
    <i name="e_wo_entrp">   -593.66192609 </i>
    <i name="e_0_energy">   -593.66192609 </i>
   </energy>
  </scstep>
  <scstep>
   <time name="total">   14.29   14.29</time>
   <energy>
    <i name="e_fr_energy">   -593.66259674 </i>
    <i name="e_wo_entrp">   -593.66259674 </i>
    <i name="e_0_energy">   -593.66259674 </i>
   </energy>
  </scstep>
  <scstep>
   <time name="total">   14.29   14.30</time>
   <energy>
    <i name="e_fr_energy">   -593.66272738 </i>
    <i name="e_wo_entrp">   -593.66272738 </i>
    <i name="e_0_energy">   -593.66272738 </i>
   </energy>
  </scstep>
  <scstep>
   <time name="total">   14.29   14.30</time>
   <energy>
    <i name="e_fr_energy">   -593.66275943 </i>
    <i name="e_wo_entrp">   -593.66275943 </i>
    <i name="e_0_energy">   -593.66275943 </i>
   </energy>
  </scstep>
  <scstep>
   <time name="total">   14.28   14.31</time>
   <energy>
    <i name="e_fr_energy">   -593.66276943 </i>
    <i name="e_wo_entrp">   -593.66276943 </i>
    <i name="e_0_energy">   -593.66276943 </i>
   </energy>
  </scstep>
  <scstep>
   <time name="total">   16.50   16.51</time>
   <energy>
    <i name="alphaZ">    108.40866624 </i>
    <i name="ewald">  -4394.50549478 </i>
    <i name="hartreedc">  -2474.65800579 </i>
    <i name="XCdc">   -143.75157011 </i>
    <i name="pawpsdc">  12926.46017993 </i>
    <i name="pawaedc"> -12626.37184535 </i>
    <i name="eentropy">     -0.00000000 </i>
    <i name="bandstr">  -1110.71269951 </i>
    <i name="atom">   7121.46799656 </i>
    <i name="e_fr_energy">   -593.66277281 </i>
    <i name="e_wo_entrp">   -593.66277281 </i>
    <i name="e_0_energy">   -593.66277281 </i>
   </energy>
  </scstep>
  <structure>
   <crystal>
    <varray name="basis" >
     <v>      14.63700000       0.00000000       0.00000000 </v>
     <v>       0.00000000       8.78600000       0.00000000 </v>
     <v>       0.00000000       0.00000000       8.28800000 </v>
    </varray>
    <i name="volume">   1065.84245242 </i>
    <varray name="rec_basis" >
     <v>       0.06832001       0.00000000       0.00000000 </v>
     <v>       0.00000000       0.11381744       0.00000000 </v>
     <v>       0.00000000       0.00000000       0.12065637 </v>
    </varray>
   </crystal>
   <varray name="positions" >
    <v>       0.65645806       0.53878137       0.27048989 </v>
    <v>       0.34135814       0.48877552       0.80484701 </v>
    <v>       0.84561374       0.03420193       0.77007230 </v>
    <v>       0.17381377       0.03641423       0.21777438 </v>
    <v>       0.65921211       0.42565949       0.05310899 </v>
    <v>       0.65487727       0.31347315       0.33126131 </v>
    <v>       0.65031663       0.44285768       0.49010934 </v>
    <v>       0.66323621       0.62178451       0.04452251 </v>
    <v>       0.65592315       0.65254766       0.32175656 </v>
    <v>       0.34145776       0.65550832       0.63330595 </v>
    <v>       0.45060225       0.62264594       0.85875935 </v>
    <v>       0.42737860       0.47257189       0.99177696 </v>
    <v>       0.25844823       0.51714200       0.61304079 </v>
    <v>       0.30507172       0.38717441       0.84297566 </v>
    <v>       0.85641483       0.84748476       0.91463429 </v>
    <v>       0.83913574       0.85152310       0.61873966 </v>
    <v>       0.83123167       0.02767534       0.52764857 </v>
    <v>       0.86322443       0.02385026       0.01042094 </v>
    <v>       0.84503153       0.15796232       0.77226173 </v>
    <v>       0.14035666       0.93555163       0.43323548 </v>
    <v>       0.17873720       0.80824946       0.17022809 </v>
    <v>       0.20506303       0.92947023       0.01089051 </v>
    <v>       0.14488461       0.13234367       0.43176912 </v>
    <v>       0.18402462       0.14728059       0.16292358 </v>
    <v>       0.58910000       0.23970000       0.79700000 </v>
    <v>       0.41090000       0.76030000       0.29700000 </v>
    <v>       0.91090000       0.73970000       0.29700000 </v>
    <v>       0.08910000       0.26030000       0.79700000 </v>
    <v>       0.33402000       0.99870000       0.75710000 </v>
    <v>       0.66598000       0.00130000       0.25710000 </v>
    <v>       0.16598000       0.49870000       0.25710000 </v>
    <v>       0.83402000       0.50130000       0.75710000 </v>
    <v>       0.41170000       0.24010000       0.20500000 </v>
    <v>       0.58830000       0.75990000       0.70500000 </v>
    <v>       0.08830000       0.74010000       0.70500000 </v>
    <v>       0.91170000       0.25990000       0.20500000 </v>
    <v>       0.65373252       0.42344698       0.36993337 </v>
    <v>       0.65944154       0.52681368       0.11282165 </v>
    <v>       0.40890891       0.53626124       0.89478646 </v>
    <v>       0.31400694       0.55599406       0.67235138 </v>
    <v>       0.83735751       0.96646326       0.63028386 </v>
    <v>       0.85430795       0.96256371       0.90762252 </v>
    <v>       0.18388372       0.91615166       0.12654974 </v>
    <v>       0.15199129       0.03331049       0.37106119 </v>
    <v>       0.50000000       0.00260000       0.00000000 </v>
    <v>       0.50000000       0.99740000       0.50000000 </v>
    <v>       0.00000000       0.50260000       0.50000000 </v>
    <v>       0.00000000       0.49740000       0.00000000 </v>
   </varray>
  </structure>
  <varray name="forces" >
   <v>      -0.00414399       0.01283756      -0.04934372 </v>
   <v>      -0.09169170       0.00292687      -0.01822832 </v>
   <v>       0.00558185       0.01389790      -0.00080180 </v>
   <v>      -0.00840608      -0.00003590      -0.00729350 </v>
   <v>      -0.00108450       0.00153359       0.03048407 </v>
   <v>      -0.00261441      -0.01974745       0.01444020 </v>
   <v>       0.00171097      -0.00456455      -0.00919166 </v>
   <v>       0.00298506       0.02007097       0.00240675 </v>
   <v>       0.00697816       0.01122298      -0.01665990 </v>
   <v>       0.00822959      -0.03958396      -0.03570548 </v>
   <v>      -0.02848553      -0.01252943       0.01604260 </v>
   <v>      -0.03234402       0.00621529       0.00649348 </v>
   <v>      -0.01519068      -0.01555818      -0.00528710 </v>
   <v>      -0.02335484      -0.02019172       0.00485988 </v>
   <v>       0.00576878       0.00890415      -0.01939658 </v>
   <v>      -0.00443407       0.01679083      -0.03432836 </v>
   <v>      -0.01122218      -0.02009118       0.02024290 </v>
   <v>       0.00539360      -0.00688272      -0.00456285 </v>
   <v>       0.00234386      -0.01795519       0.03965922 </v>
   <v>      -0.00253484      -0.00321673       0.01630862 </v>
   <v>      -0.00773165      -0.01081016       0.00965082 </v>
   <v>      -0.01653882       0.00502039       0.01106337 </v>
   <v>       0.00078499      -0.02062944      -0.00618511 </v>
   <v>      -0.01137477       0.00897049      -0.01176077 </v>
   <v>       0.15935619       0.05642867      -0.03386795 </v>
   <v>       0.06036005      -0.00122020       0.03841777 </v>
   <v>      -0.02442801       0.01635635      -0.11423631 </v>
   <v>       0.08699508      -0.07521950      -0.06915210 </v>
   <v>       0.00620961      -0.03144910       0.01593513 </v>
   <v>       0.09487987       0.02897780       0.02836820 </v>
   <v>       0.09380793      -0.00901448       0.04238532 </v>
   <v>      -0.06575882       0.13550102      -0.00795882 </v>
   <v>       0.00892841       0.01207829       0.01095359 </v>
   <v>       0.19420004      -0.18027752       0.01711285 </v>
   <v>      -0.05249651       0.11439521      -0.03103221 </v>
   <v>      -0.07541077      -0.06723285       0.04756979 </v>
   <v>       0.00349050      -0.01924758       0.02540900 </v>
   <v>      -0.00202162       0.01073653       0.04489098 </v>
   <v>       0.01846002      -0.00858096       0.00273367 </v>
   <v>       0.06410101      -0.00724976       0.02040123 </v>
   <v>      -0.00555614      -0.00853484       0.00341932 </v>
   <v>       0.00646903      -0.01066924       0.01528290 </v>
   <v>      -0.00350094       0.01179798      -0.00602709 </v>
   <v>      -0.00449427       0.00288372       0.01611205 </v>
   <v>      -0.14679124       0.05173625       0.04732114 </v>
   <v>      -0.15292150       0.06631720      -0.09792885 </v>
   <v>      -0.03460753      -0.00029535       0.02288138 </v>
   <v>      -0.00789517      -0.00481206       0.00810221 </v>
  </varray>
  <energy>
   <i name="e_fr_energy">   -593.66277281 </i>
   <i name="e_wo_entrp">   -593.66277281 </i>
   <i name="e_0_energy">   -593.66277281 </i>
  </energy>
  <time name="totalsc">  122.95  123.05</time>
 </calculation>
 <calculation>
  <scstep>
   <time name="total">   14.32   14.33</time>
   <energy>
    <i name="alphaZ">    108.40866624 </i>
    <i name="ewald">  -4394.03961204 </i>
    <i name="hartreedc">  -2474.79081222 </i>
    <i name="XCdc">   -143.74189897 </i>
    <i name="pawpsdc">  12929.78659215 </i>
    <i name="pawaedc"> -12629.69873446 </i>
    <i name="eentropy">     -0.00000000 </i>
    <i name="bandstr">  -1111.04511611 </i>
    <i name="atom">   7121.46799656 </i>
    <i name="e_fr_energy">   -593.65291884 </i>
    <i name="e_wo_entrp">   -593.65291884 </i>
    <i name="e_0_energy">   -593.65291884 </i>
   </energy>
  </scstep>
  <scstep>
   <time name="total">   14.29   14.30</time>
   <energy>
    <i name="e_fr_energy">   -593.66116673 </i>
    <i name="e_wo_entrp">   -593.66116673 </i>
    <i name="e_0_energy">   -593.66116673 </i>
   </energy>
  </scstep>
  <scstep>
   <time name="total">   14.29   14.31</time>
   <energy>
    <i name="e_fr_energy">   -593.66310155 </i>
    <i name="e_wo_entrp">   -593.66310155 </i>
    <i name="e_0_energy">   -593.66310155 </i>
   </energy>
  </scstep>
  <scstep>
   <time name="total">   14.29   14.29</time>
   <energy>
    <i name="e_fr_energy">   -593.66339192 </i>
    <i name="e_wo_entrp">   -593.66339192 </i>
    <i name="e_0_energy">   -593.66339192 </i>
   </energy>
  </scstep>
  <scstep>
   <time name="total">   14.30   14.30</time>
   <energy>
    <i name="e_fr_energy">   -593.66344978 </i>
    <i name="e_wo_entrp">   -593.66344978 </i>
    <i name="e_0_energy">   -593.66344978 </i>
   </energy>
  </scstep>
  <scstep>
   <time name="total">   14.28   14.29</time>
   <energy>
    <i name="e_fr_energy">   -593.66346404 </i>
    <i name="e_wo_entrp">   -593.66346404 </i>
    <i name="e_0_energy">   -593.66346404 </i>
   </energy>
  </scstep>
  <scstep>
   <time name="total">   14.27   14.28</time>
   <energy>
    <i name="e_fr_energy">   -593.66346859 </i>
    <i name="e_wo_entrp">   -593.66346859 </i>
    <i name="e_0_energy">   -593.66346859 </i>
   </energy>
  </scstep>
  <scstep>
   <time name="total">   16.49   16.50</time>
   <energy>
    <i name="alphaZ">    108.40866624 </i>
    <i name="ewald">  -4394.03961204 </i>
    <i name="hartreedc">  -2474.98756923 </i>
    <i name="XCdc">   -143.72888594 </i>
    <i name="pawpsdc">  12929.29577252 </i>
    <i name="pawaedc"> -12629.20926146 </i>
    <i name="eentropy">     -0.00000000 </i>
    <i name="bandstr">  -1110.87057674 </i>
    <i name="atom">   7121.46799656 </i>
    <i name="e_fr_energy">   -593.66347009 </i>
    <i name="e_wo_entrp">   -593.66347009 </i>
    <i name="e_0_energy">   -593.66347009 </i>
   </energy>
  </scstep>
  <structure>
   <crystal>
    <varray name="basis" >
     <v>      14.63700000       0.00000000       0.00000000 </v>
     <v>       0.00000000       8.78600000       0.00000000 </v>
     <v>       0.00000000       0.00000000       8.28800000 </v>
    </varray>
    <i name="volume">   1065.84245242 </i>
    <varray name="rec_basis" >
     <v>       0.06832001       0.00000000       0.00000000 </v>
     <v>       0.00000000       0.11381744       0.00000000 </v>
     <v>       0.00000000       0.00000000       0.12065637 </v>
    </varray>
   </crystal>
   <varray name="positions" >
    <v>       0.65642978       0.53881130       0.27037851 </v>
    <v>       0.34110926       0.48893741       0.80493459 </v>
    <v>       0.84564205       0.03415273       0.77007941 </v>
    <v>       0.17376824       0.03646464       0.21778135 </v>
    <v>       0.65920617       0.42571453       0.05339100 </v>
    <v>       0.65486528       0.31332101       0.33138521 </v>
    <v>       0.65032173       0.44283920       0.49011531 </v>
    <v>       0.66324595       0.62186792       0.04459490 </v>
    <v>       0.65595514       0.65262909       0.32161010 </v>
    <v>       0.34151203       0.65525201       0.63303959 </v>
    <v>       0.45047250       0.62254124       0.85888846 </v>
    <v>       0.42724019       0.47262185       0.99182248 </v>
    <v>       0.25849946       0.51711414       0.61311912 </v>
    <v>       0.30493723       0.38692858       0.84302993 </v>
    <v>       0.85643980       0.84755070       0.91448231 </v>
    <v>       0.83911530       0.85167955       0.61846933 </v>
    <v>       0.83118375       0.02750492       0.52782209 </v>
    <v>       0.86325034       0.02381215       0.01041919 </v>
    <v>       0.84504123       0.15787920       0.77257698 </v>
    <v>       0.14034528       0.93554489       0.43336525 </v>
    <v>       0.17870569       0.80819460       0.17028354 </v>
    <v>       0.20500692       0.92952054       0.01088953 </v>
    <v>       0.14488615       0.13222850       0.43173888 </v>
    <v>       0.18397690       0.14735009       0.16282505 </v>
    <v>       0.58910000       0.23970000       0.79700000 </v>
    <v>       0.41090000       0.76030000       0.29700000 </v>
    <v>       0.91090000       0.73970000       0.29700000 </v>
    <v>       0.08910000       0.26030000       0.79700000 </v>
    <v>       0.33402000       0.99870000       0.75710000 </v>
    <v>       0.66598000       0.00130000       0.25710000 </v>
    <v>       0.16598000       0.49870000       0.25710000 </v>
    <v>       0.83402000       0.50130000       0.75710000 </v>
    <v>       0.41170000       0.24010000       0.20500000 </v>
    <v>       0.58830000       0.75990000       0.70500000 </v>
    <v>       0.08830000       0.74010000       0.70500000 </v>
    <v>       0.91170000       0.25990000       0.20500000 </v>
    <v>       0.65375395       0.42336507       0.36995488 </v>
    <v>       0.65944135       0.52690897       0.11289756 </v>
    <v>       0.40892660       0.53613729       0.89472446 </v>
    <v>       0.31410042       0.55585754       0.67221850 </v>
    <v>       0.83733545       0.96642667       0.63036225 </v>
    <v>       0.85432603       0.96253878       0.90762203 </v>
    <v>       0.18384854       0.91617534       0.12662399 </v>
    <v>       0.15198394       0.03324894       0.37109249 </v>
    <v>       0.50000000       0.00260000       0.00000000 </v>
    <v>       0.50000000       0.99740000       0.50000000 </v>
    <v>       0.00000000       0.50260000       0.50000000 </v>
    <v>       0.00000000       0.49740000       0.00000000 </v>
   </varray>
  </structure>
  <varray name="forces" >
   <v>       0.00151164      -0.01735713       0.07714280 </v>
   <v>       0.01650232      -0.07902730       0.06743023 </v>
   <v>       0.00072307       0.02059987       0.03283451 </v>
   <v>      -0.00566983      -0.00664765      -0.00364000 </v>
   <v>      -0.00063196      -0.01185560       0.00687493 </v>
   <v>      -0.00205306      -0.00339752       0.01247481 </v>
   <v>       0.00149327      -0.00211536      -0.01045245 </v>
   <v>       0.00227893       0.01997194      -0.00402767 </v>
   <v>       0.00314534      -0.00178519      -0.01050067 </v>
   <v>       0.02842501      -0.01042045      -0.04104136 </v>
   <v>       0.01044376       0.03080496      -0.00412309 </v>
   <v>      -0.02483525      -0.00904611       0.02801964 </v>
   <v>      -0.04203301      -0.02203240      -0.02686496 </v>
   <v>      -0.00643055       0.05114059      -0.01097380 </v>
   <v>       0.00735961      -0.02881076      -0.00898863 </v>
   <v>      -0.00135473      -0.04659288      -0.01897902 </v>
   <v>      -0.01574592       0.02140565      -0.02302188 </v>
   <v>       0.00615078      -0.00761663      -0.00264754 </v>
   <v>       0.00213969      -0.00918609       0.02066307 </v>
   <v>      -0.00016850      -0.00694104       0.00810135 </v>
   <v>      -0.00599815       0.01280663       0.00402946 </v>
   <v>      -0.02319771      -0.00023144       0.03140818 </v>
   <v>      -0.00301756       0.00505109       0.01086594 </v>
   <v>      -0.01565323      -0.00478357       0.00169623 </v>
   <v>       0.15857035       0.05516739      -0.03305358 </v>
   <v>       0.05986276      -0.00223214       0.03863021 </v>
   <v>      -0.02473169       0.01678933      -0.11381419 </v>
   <v>       0.08764022      -0.07532875      -0.06872632 </v>
   <v>       0.00588967      -0.03091967       0.01593889 </v>
   <v>       0.09455624       0.02808370       0.02819804 </v>
   <v>       0.09490998      -0.00823695       0.04188999 </v>
   <v>      -0.06533440       0.13533817      -0.00710219 </v>
   <v>       0.00847380       0.01183090       0.01143454 </v>
   <v>       0.19421433      -0.17891492       0.01639787 </v>
   <v>      -0.05109708       0.11444548      -0.03090014 </v>
   <v>      -0.07525585      -0.06687548       0.04654382 </v>
   <v>       0.00109551       0.02672077      -0.01902960 </v>
   <v>      -0.00262723       0.00338348      -0.01049549 </v>
   <v>      -0.10322215      -0.05089220      -0.02773121 </v>
   <v>       0.02114695      -0.00550433       0.00646351 </v>
   <v>      -0.00452266       0.01785665       0.00551572 </v>
   <v>       0.00823611       0.00782280       0.01406844 </v>
   <v>       0.00397571      -0.00747721      -0.03487843 </v>
   <v>      -0.00224653       0.00156449       0.00419044 </v>
   <v>      -0.14620048       0.05267606       0.04584196 </v>
   <v>      -0.15218152       0.06654653      -0.09651698 </v>
   <v>      -0.03551208      -0.00069490       0.02289999 </v>
   <v>      -0.00902391      -0.00508278       0.00795465 </v>
  </varray>
  <energy>
   <i name="e_fr_energy">   -593.66347009 </i>
   <i name="e_wo_entrp">   -593.66347009 </i>
   <i name="e_0_energy">   -593.66347009 </i>
  </energy>
  <time name="totalsc">  122.99  123.08</time>
 </calculation>
 <calculation>
  <scstep>
   <time name="total">   14.30   14.30</time>
   <energy>
    <i name="alphaZ">    108.40866624 </i>
    <i name="ewald">  -4394.07466303 </i>
    <i name="hartreedc">  -2474.97642044 </i>
    <i name="XCdc">   -143.72969797 </i>
    <i name="pawpsdc">  12929.22238736 </i>
    <i name="pawaedc"> -12629.13581723 </i>
    <i name="eentropy">     -0.00000000 </i>
    <i name="bandstr">  -1110.84586637 </i>
    <i name="atom">   7121.46799656 </i>
    <i name="e_fr_energy">   -593.66341488 </i>
    <i name="e_wo_entrp">   -593.66341488 </i>
    <i name="e_0_energy">   -593.66341488 </i>
   </energy>
  </scstep>
  <scstep>
   <time name="total">   14.32   14.32</time>
   <energy>
    <i name="e_fr_energy">   -593.66346193 </i>
    <i name="e_wo_entrp">   -593.66346193 </i>
    <i name="e_0_energy">   -593.66346193 </i>
   </energy>
  </scstep>
  <scstep>
   <time name="total">   14.30   14.31</time>
   <energy>
    <i name="e_fr_energy">   -593.66347314 </i>
    <i name="e_wo_entrp">   -593.66347314 </i>
    <i name="e_0_energy">   -593.66347314 </i>
   </energy>
  </scstep>
  <scstep>
   <time name="total">   14.31   14.32</time>
   <energy>
    <i name="e_fr_energy">   -593.66347483 </i>
    <i name="e_wo_entrp">   -593.66347483 </i>
    <i name="e_0_energy">   -593.66347483 </i>
   </energy>
  </scstep>
  <scstep>
   <time name="total">   14.31   14.33</time>
   <energy>
    <i name="e_fr_energy">   -593.66347521 </i>
    <i name="e_wo_entrp">   -593.66347521 </i>
    <i name="e_0_energy">   -593.66347521 </i>
   </energy>
  </scstep>
  <scstep>
   <time name="total">   14.34   14.35</time>
   <energy>
    <i name="e_fr_energy">   -593.66347530 </i>
    <i name="e_wo_entrp">   -593.66347530 </i>
    <i name="e_0_energy">   -593.66347530 </i>
   </energy>
  </scstep>
  <scstep>
   <time name="total">   14.28   14.29</time>
   <energy>
    <i name="e_fr_energy">   -593.66347532 </i>
    <i name="e_wo_entrp">   -593.66347532 </i>
    <i name="e_0_energy">   -593.66347532 </i>
   </energy>
  </scstep>
  <scstep>
   <time name="total">   16.50   16.52</time>
   <energy>
    <i name="alphaZ">    108.40866624 </i>
    <i name="ewald">  -4394.07466303 </i>
    <i name="hartreedc">  -2474.96195927 </i>
    <i name="XCdc">   -143.73065633 </i>
    <i name="pawpsdc">  12929.06872901 </i>
    <i name="pawaedc"> -12628.98207999 </i>
    <i name="eentropy">     -0.00000000 </i>
    <i name="bandstr">  -1110.85950853 </i>
    <i name="atom">   7121.46799656 </i>
    <i name="e_fr_energy">   -593.66347533 </i>
    <i name="e_wo_entrp">   -593.66347533 </i>
    <i name="e_0_energy">   -593.66347533 </i>
   </energy>
  </scstep>
  <structure>
   <crystal>
    <varray name="basis" >
     <v>      14.63700000       0.00000000       0.00000000 </v>
     <v>       0.00000000       8.78600000       0.00000000 </v>
     <v>       0.00000000       0.00000000       8.28800000 </v>
    </varray>
    <i name="volume">   1065.84245242 </i>
    <varray name="rec_basis" >
     <v>       0.06832001       0.00000000       0.00000000 </v>
     <v>       0.00000000       0.11381744       0.00000000 </v>
     <v>       0.00000000       0.00000000       0.12065637 </v>
    </varray>
   </crystal>
   <varray name="positions" >
    <v>       0.65643192       0.53880904       0.27038694 </v>
    <v>       0.34112808       0.48892517       0.80492797 </v>
    <v>       0.84563991       0.03415645       0.77007887 </v>
    <v>       0.17377169       0.03646083       0.21778082 </v>
    <v>       0.65920662       0.42571037       0.05336968 </v>
    <v>       0.65486618       0.31333251       0.33137584 </v>
    <v>       0.65032134       0.44284060       0.49011486 </v>
    <v>       0.66324521       0.62186161       0.04458943 </v>
    <v>       0.65595272       0.65262293       0.32162118 </v>
    <v>       0.34150793       0.65527139       0.63305973 </v>
    <v>       0.45048231       0.62254916       0.85887870 </v>
    <v>       0.42725066       0.47261807       0.99181904 </v>
    <v>       0.25849558       0.51711625       0.61311319 </v>
    <v>       0.30494740       0.38694717       0.84302582 </v>
    <v>       0.85643791       0.84754572       0.91449380 </v>
    <v>       0.83911684       0.85166772       0.61848977 </v>
    <v>       0.83118738       0.02751781       0.52780897 </v>
    <v>       0.86324838       0.02381504       0.01041933 </v>
    <v>       0.84504049       0.15788549       0.77255314 </v>
    <v>       0.14034614       0.93554540       0.43335543 </v>
    <v>       0.17870808       0.80819875       0.17027934 </v>
    <v>       0.20501116       0.92951673       0.01088961 </v>
    <v>       0.14488603       0.13223721       0.43174117 </v>
    <v>       0.18398051       0.14734484       0.16283250 </v>
    <v>       0.58910000       0.23970000       0.79700000 </v>
    <v>       0.41090000       0.76030000       0.29700000 </v>
    <v>       0.91090000       0.73970000       0.29700000 </v>
    <v>       0.08910000       0.26030000       0.79700000 </v>
    <v>       0.33402000       0.99870000       0.75710000 </v>
    <v>       0.66598000       0.00130000       0.25710000 </v>
    <v>       0.16598000       0.49870000       0.25710000 </v>
    <v>       0.83402000       0.50130000       0.75710000 </v>
    <v>       0.41170000       0.24010000       0.20500000 </v>
    <v>       0.58830000       0.75990000       0.70500000 </v>
    <v>       0.08830000       0.74010000       0.70500000 </v>
    <v>       0.91170000       0.25990000       0.20500000 </v>
    <v>       0.65375233       0.42337126       0.36995326 </v>
    <v>       0.65944137       0.52690177       0.11289182 </v>
    <v>       0.40892526       0.53614667       0.89472915 </v>
    <v>       0.31409335       0.55586787       0.67222854 </v>
    <v>       0.83733711       0.96642943       0.63035633 </v>
    <v>       0.85432466       0.96254067       0.90762207 </v>
    <v>       0.18385120       0.91617355       0.12661838 </v>
    <v>       0.15198450       0.03325360       0.37109012 </v>
    <v>       0.50000000       0.00260000       0.00000000 </v>
    <v>       0.50000000       0.99740000       0.50000000 </v>
    <v>       0.00000000       0.50260000       0.50000000 </v>
    <v>       0.00000000       0.49740000       0.00000000 </v>
   </varray>
  </structure>
  <varray name="forces" >
   <v>       0.00117990      -0.01511553       0.06775257 </v>
   <v>       0.00852067      -0.07233498       0.06162371 </v>
   <v>       0.00124557       0.02007751       0.03021364 </v>
   <v>      -0.00611925      -0.00631750      -0.00400015 </v>
   <v>      -0.00066070      -0.01081019       0.00872297 </v>
   <v>      -0.00207693      -0.00472179       0.01264417 </v>
   <v>       0.00155680      -0.00227520      -0.01026484 </v>
   <v>       0.00235067       0.01987775      -0.00350241 </v>
   <v>       0.00348594      -0.00080075      -0.01097065 </v>
   <v>       0.02690321      -0.01251539      -0.04067477 </v>
   <v>       0.00741889       0.02751397      -0.00258464 </v>
   <v>      -0.02548648      -0.00789895       0.02633586 </v>
   <v>      -0.04016841      -0.02154874      -0.02526846 </v>
   <v>      -0.00768866       0.04577895      -0.00979523 </v>
   <v>       0.00726007      -0.02590442      -0.00983543 </v>
   <v>      -0.00153543      -0.04176101      -0.02022626 </v>
   <v>      -0.01537770       0.01827125      -0.01975916 </v>
   <v>       0.00610452      -0.00759208      -0.00287400 </v>
   <v>       0.00220790      -0.00988103       0.02222754 </v>
   <v>      -0.00039114      -0.00664792       0.00876008 </v>
   <v>      -0.00613958       0.01106786       0.00443989 </v>
   <v>      -0.02269355       0.00016821       0.02986703 </v>
   <v>      -0.00277119       0.00313375       0.00957097 </v>
[...]
       <r>   -21.5208     0.0000     0.0000 </r>
       <r>   -21.4160     0.0000     0.0000 </r>
       <r>   -21.3111     0.0000     0.0000 </r>
       <r>   -21.2062     0.0000     0.0000 </r>
       <r>   -21.1014     0.5884     0.0617 </r>
       <r>   -20.9965    26.4661     2.8370 </r>
       <r>   -20.8916    36.5352     6.6683 </r>
       <r>   -20.7868    12.6398     7.9937 </r>
       <r>   -20.6819     0.0598     8.0000 </r>
       <r>   -20.5771     0.0000     8.0000 </r>
       <r>   -20.4722     0.0000     8.0000 </r>
       <r>   -20.3673     0.0000     8.0000 </r>
       <r>   -20.2625     0.0000     8.0000 </r>
       <r>   -20.1576     0.0000     8.0000 </r>
       <r>   -20.0527     0.0000     8.0000 </r>
       <r>   -19.9479     0.0000     8.0000 </r>
       <r>   -19.8430     0.0000     8.0000 </r>
       <r>   -19.7381     0.0000     8.0000 </r>
       <r>   -19.6333     0.0000     8.0000 </r>
       <r>   -19.5284     0.0000     8.0000 </r>
       <r>   -19.4235     0.0000     8.0000 </r>
       <r>   -19.3187     0.0000     8.0000 </r>
       <r>   -19.2138     0.0000     8.0000 </r>
       <r>   -19.1090     0.0000     8.0000 </r>
       <r>   -19.0041     0.0000     8.0000 </r>
       <r>   -18.8992     0.0000     8.0000 </r>
       <r>   -18.7944     0.1921     8.0201 </r>
       <r>   -18.6895    20.8690    10.2085 </r>
       <r>   -18.5846    34.5746    13.8342 </r>
       <r>   -18.4798    19.6559    15.8954 </r>
       <r>   -18.3749     0.9977    16.0000 </r>
       <r>   -18.2700     0.0000    16.0000 </r>
       <r>   -18.1652     0.0000    16.0000 </r>
       <r>   -18.0603     0.0000    16.0000 </r>
       <r>   -17.9555     0.0000    16.0000 </r>
       <r>   -17.8506     0.0000    16.0000 </r>
       <r>   -17.7457     0.0000    16.0000 </r>
       <r>   -17.6409     0.0000    16.0000 </r>
       <r>   -17.5360     0.0000    16.0000 </r>
       <r>   -17.4311     0.0000    16.0000 </r>
       <r>   -17.3263     0.0000    16.0000 </r>
       <r>   -17.2214     0.0000    16.0000 </r>
       <r>   -17.1165     0.0000    16.0000 </r>
       <r>   -17.0117     0.0000    16.0000 </r>
       <r>   -16.9068     0.0000    16.0000 </r>
       <r>   -16.8020     0.0000    16.0000 </r>
       <r>   -16.6971     0.0000    16.0000 </r>
       <r>   -16.5922     0.0000    16.0000 </r>
       <r>   -16.4874     0.0000    16.0000 </r>
       <r>   -16.3825     0.0000    16.0000 </r>
       <r>   -16.2776     0.0000    16.0000 </r>
       <r>   -16.1728     0.0000    16.0000 </r>
       <r>   -16.0679     0.0000    16.0000 </r>
       <r>   -15.9630     0.0000    16.0000 </r>
       <r>   -15.8582     0.0000    16.0000 </r>
       <r>   -15.7533     0.0000    16.0000 </r>
       <r>   -15.6484     0.0000    16.0000 </r>
       <r>   -15.5436     0.0000    16.0000 </r>
       <r>   -15.4387     0.0000    16.0000 </r>
       <r>   -15.3339     0.0000    16.0000 </r>
       <r>   -15.2290     0.0000    16.0000 </r>
       <r>   -15.1241     0.0000    16.0000 </r>
       <r>   -15.0193     0.0000    16.0000 </r>
       <r>   -14.9144     0.0000    16.0000 </r>
       <r>   -14.8095     0.0000    16.0000 </r>
       <r>   -14.7047     0.0000    16.0000 </r>
       <r>   -14.5998     0.0000    16.0000 </r>
       <r>   -14.4949     0.0000    16.0000 </r>
       <r>   -14.3901     0.0000    16.0000 </r>
       <r>   -14.2852     0.0000    16.0000 </r>
       <r>   -14.1804     0.0000    16.0000 </r>
       <r>   -14.0755     0.0000    16.0000 </r>
       <r>   -13.9706     0.0000    16.0000 </r>
       <r>   -13.8658     0.0000    16.0000 </r>
       <r>   -13.7609     0.0000    16.0000 </r>
       <r>   -13.6560     0.0000    16.0000 </r>
       <r>   -13.5512     0.0000    16.0000 </r>
       <r>   -13.4463     0.0000    16.0000 </r>
       <r>   -13.3414     0.0000    16.0000 </r>
       <r>   -13.2366     0.0000    16.0000 </r>
       <r>   -13.1317     0.0000    16.0000 </r>
       <r>   -13.0269     0.0000    16.0000 </r>
       <r>   -12.9220     0.0000    16.0000 </r>
       <r>   -12.8171     0.0000    16.0000 </r>
       <r>   -12.7123     0.0000    16.0000 </r>
       <r>   -12.6074     0.0000    16.0000 </r>
       <r>   -12.5025     0.0000    16.0000 </r>
       <r>   -12.3977     0.0000    16.0000 </r>
       <r>   -12.2928     0.8166    16.0856 </r>
       <r>   -12.1879    29.3048    19.1586 </r>
       <r>   -12.0831    32.2199    22.5373 </r>
       <r>   -11.9782    13.8173    23.9863 </r>
       <r>   -11.8733     0.1308    24.0000 </r>
       <r>   -11.7685     0.0004    24.0000 </r>
       <r>   -11.6636     0.8987    24.0943 </r>
       <r>   -11.5588    14.8480    25.6513 </r>
       <r>   -11.4539    21.9237    27.9503 </r>
       <r>   -11.3490    18.6756    29.9087 </r>
       <r>   -11.2442    21.0772    32.1189 </r>
       <r>   -11.1393    42.7977    36.6069 </r>
       <r>   -11.0344    58.5377    42.7454 </r>
       <r>   -10.9296    39.2453    46.8608 </r>
       <r>   -10.8247    10.8165    47.9950 </r>
       <r>   -10.7198     0.0475    48.0000 </r>
       <r>   -10.6150     0.0000    48.0000 </r>
       <r>   -10.5101     0.0000    48.0000 </r>
       <r>   -10.4053     0.0000    48.0000 </r>
       <r>   -10.3004     0.0000    48.0000 </r>
       <r>   -10.1955     0.4462    48.0468 </r>
       <r>   -10.0907    23.9296    50.5561 </r>
       <r>    -9.9858    33.5659    54.0760 </r>
       <r>    -9.8809    17.8640    55.9493 </r>
       <r>    -9.7761     0.4837    56.0000 </r>
       <r>    -9.6712     0.0000    56.0000 </r>
       <r>    -9.5663     0.0000    56.0000 </r>
       <r>    -9.4615     0.1166    56.0122 </r>
       <r>    -9.3566    19.3890    58.0454 </r>
       <r>    -9.2518    36.1258    61.8337 </r>
       <r>    -9.1469    19.5778    63.8867 </r>
       <r>    -9.0420     1.0801    64.0000 </r>
       <r>    -8.9372     0.0001    64.0000 </r>
       <r>    -8.8323     0.0000    64.0000 </r>
       <r>    -8.7274     0.0000    64.0000 </r>
       <r>    -8.6226     0.0000    64.0000 </r>
       <r>    -8.5177     0.0000    64.0000 </r>
       <r>    -8.4128     0.0000    64.0000 </r>
       <r>    -8.3080     0.0000    64.0000 </r>
       <r>    -8.2031     0.0000    64.0000 </r>
       <r>    -8.0982     0.0000    64.0000 </r>
       <r>    -7.9934     0.0000    64.0000 </r>
       <r>    -7.8885     0.0000    64.0000 </r>
       <r>    -7.7837     0.0001    64.0000 </r>
       <r>    -7.6788     1.4955    64.1568 </r>
       <r>    -7.5739    30.3655    67.3411 </r>
       <r>    -7.4691    29.4625    70.4306 </r>
       <r>    -7.3642    14.7821    71.9807 </r>
       <r>    -7.2593     0.1836    72.0000 </r>
       <r>    -7.1545     0.0000    72.0000 </r>
       <r>    -7.0496     0.0000    72.0000 </r>
       <r>    -6.9447     0.0000    72.0000 </r>
       <r>    -6.8399     0.0000    72.0000 </r>
       <r>    -6.7350     0.0000    72.0000 </r>
       <r>    -6.6302     0.0000    72.0000 </r>
       <r>    -6.5253     0.0000    72.0000 </r>
       <r>    -6.4204     0.0000    72.0000 </r>
       <r>    -6.3156     0.0000    72.0000 </r>
       <r>    -6.2107     0.0000    72.0000 </r>
       <r>    -6.1058     0.1279    72.0134 </r>
       <r>    -6.0010    17.8586    73.8861 </r>
       <r>    -5.8961    40.5633    78.1398 </r>
       <r>    -5.7912    17.4976    79.9746 </r>
       <r>    -5.6864     0.4164    80.0183 </r>
       <r>    -5.5815    13.4342    81.4271 </r>
       <r>    -5.4767    49.2272    86.5892 </r>
       <r>    -5.3718    57.1654    92.5838 </r>
       <r>    -5.2669    30.2564    95.7566 </r>
       <r>    -5.1621     2.3208    96.0000 </r>
       <r>    -5.0572     0.0003    96.0000 </r>
       <r>    -4.9523     0.0000    96.0000 </r>
       <r>    -4.8475     0.0000    96.0000 </r>
       <r>    -4.7426     0.0000    96.0000 </r>
       <r>    -4.6377     0.0000    96.0000 </r>
       <r>    -4.5329     0.0000    96.0000 </r>
       <r>    -4.4280     0.0000    96.0000 </r>
       <r>    -4.3231     0.0000    96.0000 </r>
       <r>    -4.2183     0.0000    96.0000 </r>
       <r>    -4.1134     0.0000    96.0000 </r>
       <r>    -4.0086     0.0000    96.0000 </r>
       <r>    -3.9037     0.0000    96.0000 </r>
       <r>    -3.7988     0.0000    96.0000 </r>
       <r>    -3.6940     0.0000    96.0000 </r>
       <r>    -3.5891     0.0000    96.0000 </r>
       <r>    -3.4842     0.0000    96.0000 </r>
       <r>    -3.3794     0.0000    96.0000 </r>
       <r>    -3.2745     0.0000    96.0000 </r>
       <r>    -3.1696     0.0000    96.0000 </r>
       <r>    -3.0648     0.0000    96.0000 </r>
       <r>    -2.9599     0.0000    96.0000 </r>
       <r>    -2.8551     0.0138    96.0014 </r>
       <r>    -2.7502     0.8038    96.0857 </r>
       <r>    -2.6453     1.3975    96.2323 </r>
       <r>    -2.5405     4.7115    96.7264 </r>
       <r>    -2.4356     7.6345    97.5269 </r>
       <r>    -2.3307    13.1107    98.9018 </r>
       <r>    -2.2259    16.2606   100.6069 </r>
       <r>    -2.1210    33.6879   104.1396 </r>
       <r>    -2.0161    36.9486   108.0141 </r>
       <r>    -1.9113    33.5237   111.5296 </r>
       <r>    -1.8064    36.2820   115.3342 </r>
       <r>    -1.7016    33.3289   118.8292 </r>
       <r>    -1.5967    27.9876   121.7641 </r>
       <r>    -1.4918    19.3361   123.7918 </r>
       <r>    -1.3870    17.0286   125.5775 </r>
       <r>    -1.2821    15.3872   127.1910 </r>
       <r>    -1.1772     6.6053   127.8837 </r>
       <r>    -1.0724    12.4167   129.1858 </r>
       <r>    -0.9675    32.2676   132.5695 </r>
       <r>    -0.8626    29.4120   135.6537 </r>
       <r>    -0.7578    25.5160   138.3294 </r>
       <r>    -0.6529    38.2410   142.3395 </r>
       <r>    -0.5480    49.6964   147.5509 </r>
       <r>    -0.4432    43.0201   152.0621 </r>
       <r>    -0.3383    38.5289   156.1024 </r>
       <r>    -0.2335    41.6115   160.4660 </r>
       <r>    -0.1286    36.1014   164.2517 </r>
       <r>    -0.0237    20.4242   166.3935 </r>
       <r>     0.0811    13.8608   167.8470 </r>
       <r>     0.1860     6.8370   168.5639 </r>
       <r>     0.2909    12.6050   169.8857 </r>
       <r>     0.3957    11.8646   171.1299 </r>
       <r>     0.5006    10.4356   172.2242 </r>
       <r>     0.6055    11.5998   173.4406 </r>
       <r>     0.7103     9.2013   174.4055 </r>
       <r>     0.8152    11.2476   175.5850 </r>
       <r>     0.9200     3.7736   175.9807 </r>
       <r>     1.0249     0.1842   176.0000 </r>
       <r>     1.1298     0.0000   176.0000 </r>
       <r>     1.2346     0.0000   176.0000 </r>
       <r>     1.3395     0.0000   176.0000 </r>
       <r>     1.4444     0.0000   176.0000 </r>
       <r>     1.5492     0.0000   176.0000 </r>
       <r>     1.6541     0.0000   176.0000 </r>
       <r>     1.7590     0.0000   176.0000 </r>
       <r>     1.8638     0.0000   176.0000 </r>
       <r>     1.9687     0.0000   176.0000 </r>
       <r>     2.0736     0.0000   176.0000 </r>
       <r>     2.1784     0.0000   176.0000 </r>
       <r>     2.2833     0.0000   176.0000 </r>
       <r>     2.3881     0.0000   176.0000 </r>
       <r>     2.4930     0.0000   176.0000 </r>
       <r>     2.5979     0.0000   176.0000 </r>
       <r>     2.7027     0.0000   176.0000 </r>
       <r>     2.8076     0.0000   176.0000 </r>
       <r>     2.9125     0.0000   176.0000 </r>
       <r>     3.0173     0.0000   176.0000 </r>
       <r>     3.1222     0.0000   176.0000 </r>
       <r>     3.2271     0.0000   176.0000 </r>
       <r>     3.3319     0.0000   176.0000 </r>
       <r>     3.4368     0.0000   176.0000 </r>
       <r>     3.5416     0.0000   176.0000 </r>
       <r>     3.6465     0.0000   176.0000 </r>
       <r>     3.7514     0.1342   176.0141 </r>
       <r>     3.8562    12.8873   177.3655 </r>
       <r>     3.9611    39.2546   181.4819 </r>
       <r>     4.0660    42.3406   185.9219 </r>
       <r>     4.1708    37.9340   189.8998 </r>
       <r>     4.2757    33.4408   193.4065 </r>
       <r>     4.3806    40.7181   197.6764 </r>
       <r>     4.4854    38.8251   201.7477 </r>
       <r>     4.5903    24.2472   204.2904 </r>
       <r>     4.6951    17.5752   206.1334 </r>
       <r>     4.8000    10.8309   207.2692 </r>
       <r>     4.9049     6.1384   207.9129 </r>
       <r>     5.0097     0.8288   207.9998 </r>
       <r>     5.1146     0.0023   208.0000 </r>
       <r>     5.2195     0.2519   208.0264 </r>
       <r>     5.3243     0.7947   208.1098 </r>
       <r>     5.4292     0.2091   208.1317 </r>
       <r>     5.5341     2.7931   208.4246 </r>
       <r>     5.6389     2.9293   208.7318 </r>
       <r>     5.7438     4.9233   209.2480 </r>
       <r>     5.8487     9.4250   210.2364 </r>
       <r>     5.9535     6.2097   210.8875 </r>
       <r>     6.0584     8.5691   211.7861 </r>
       <r>     6.1632     9.7388   212.8074 </r>
       <r>     6.2681    11.8704   214.0522 </r>
       <r>     6.3730     8.9070   214.9862 </r>
       <r>     6.4778    15.0950   216.5691 </r>
       <r>     6.5827    19.1219   218.5743 </r>
       <r>     6.6876    14.8802   220.1347 </r>
       <r>     6.7924    23.1298   222.5602 </r>
       <r>     6.8973    26.0526   225.2921 </r>
       <r>     7.0022    26.1537   228.0347 </r>
       <r>     7.1070    27.0659   230.8730 </r>
       <r>     7.2119    22.1034   233.1908 </r>
       <r>     7.3167    25.3718   235.8514 </r>
       <r>     7.4216    20.1573   237.9652 </r>
       <r>     7.5265    15.6127   239.6024 </r>
       <r>     7.6313     3.7277   239.9933 </r>
       <r>     7.7362     0.0639   240.0000 </r>
       <r>     7.8411     0.0000   240.0000 </r>
       <r>     7.9459     0.0000   240.0000 </r>
       <r>     8.0508     0.0000   240.0000 </r>
       <r>     8.1557     0.0000   240.0000 </r>
       <r>     8.2605     0.0000   240.0000 </r>
       <r>     8.3654     0.0000   240.0000 </r>
       <r>     8.4702     0.0000   240.0000 </r>
       <r>     8.5751     0.0000   240.0000 </r>
       <r>     8.6800     0.0000   240.0000 </r>
       <r>     8.7848     0.0000   240.0000 </r>
       <r>     8.8897     0.0000   240.0000 </r>
       <r>     8.9946     0.0000   240.0000 </r>
      </set>
     </set>
    </array>
   </total>
  </dos>
 </calculation>
 <structure name="finalpos" >
  <crystal>
   <varray name="basis" >
    <v>      14.63700000       0.00000000       0.00000000 </v>
    <v>       0.00000000       8.78600000       0.00000000 </v>
    <v>       0.00000000       0.00000000       8.28800000 </v>
   </varray>
   <i name="volume">   1065.84245242 </i>
   <varray name="rec_basis" >
    <v>       0.06832001       0.00000000       0.00000000 </v>
    <v>       0.00000000       0.11381744       0.00000000 </v>
    <v>       0.00000000       0.00000000       0.12065637 </v>
   </varray>
  </crystal>
  <varray name="positions" >
   <v>       0.65477722       0.53770112       0.28002646 </v>
   <v>       0.33374952       0.47221309       0.78616470 </v>
   <v>       0.85084249       0.04331646       0.77365034 </v>
   <v>       0.16656185       0.03498578       0.22223027 </v>
   <v>       0.65275110       0.42700353       0.06166800 </v>
   <v>       0.65058231       0.31166843       0.33839839 </v>
   <v>       0.64962976       0.43954288       0.49868082 </v>
   <v>       0.65930046       0.62334695       0.05529186 </v>
   <v>       0.65664694       0.65091585       0.33258408 </v>
   <v>       0.35768402       0.59770567       0.58168371 </v>
   <v>       0.43932273       0.61258122       0.84476448 </v>
   <v>       0.40272631       0.48637298      -0.00542037 </v>
   <v>       0.27045299       0.46620469       0.57049427 </v>
   <v>       0.29060413       0.38189991       0.83313804 </v>
   <v>       0.85119257       0.81679041       0.83091664 </v>
   <v>       0.86071179       0.93430170       0.55500930 </v>
   <v>       0.85678887       0.13071201       0.54966964 </v>
   <v>       0.84697377      -0.05595213      -0.00833299 </v>
   <v>       0.84800973       0.15610095       0.82714557 </v>
   <v>       0.14151266       0.92739348       0.43791750 </v>
   <v>       0.17592632       0.80845098       0.16924049 </v>
   <v>       0.19512124       0.93410677       0.01064452 </v>
   <v>       0.14047368       0.12393591       0.44081200 </v>
   <v>       0.17217304       0.14751170       0.16904221 </v>
   <v>       0.58910000       0.23970000       0.79700000 </v>
   <v>       0.41090000       0.76030000       0.29700000 </v>
   <v>       0.91090000       0.73970000       0.29700000 </v>
   <v>       0.08910000       0.26030000       0.79700000 </v>
   <v>       0.33402000       0.99870000       0.75710000 </v>
   <v>       0.66598000       0.00130000       0.25710000 </v>
   <v>       0.16598000       0.49870000       0.25710000 </v>
   <v>       0.83402000       0.50130000       0.75710000 </v>
   <v>       0.41170000       0.24010000       0.20500000 </v>
   <v>       0.58830000       0.75990000       0.70500000 </v>
   <v>       0.08830000       0.74010000       0.70500000 </v>
   <v>       0.91170000       0.25990000       0.20500000 </v>
   <v>       0.65158406       0.42132262       0.37820605 </v>
   <v>       0.65579154       0.52749731       0.12228558 </v>
   <v>       0.39397988       0.53272368       0.88344822 </v>
   <v>       0.32150131       0.51318525       0.63583723 </v>
   <v>       0.85537912       0.03431811       0.61616263 </v>
   <v>       0.84929316       0.92619542       0.87116390 </v>
   <v>       0.17766296       0.91735432       0.12760058 </v>
   <v>       0.14883791       0.02706155       0.37694074 </v>
   <v>       0.50000000       0.00260000       0.00000000 </v>
   <v>       0.50000000       0.99740000       0.50000000 </v>
   <v>       0.00000000       0.50260000       0.50000000 </v>
   <v>       0.00000000       0.49740000       0.00000000 </v>
  </varray>
  <varray name="selective"  type="logical" >
   <v type="logical" >  T  T  T </v>
   <v type="logical" >  T  T  T </v>
   <v type="logical" >  T  T  T </v>
   <v type="logical" >  T  T  T </v>
   <v type="logical" >  T  T  T </v>
   <v type="logical" >  T  T  T </v>
   <v type="logical" >  T  T  T </v>
   <v type="logical" >  T  T  T </v>
   <v type="logical" >  T  T  T </v>
   <v type="logical" >  T  T  T </v>
   <v type="logical" >  T  T  T </v>
   <v type="logical" >  T  T  T </v>
   <v type="logical" >  T  T  T </v>
   <v type="logical" >  T  T  T </v>
   <v type="logical" >  T  T  T </v>
   <v type="logical" >  T  T  T </v>
   <v type="logical" >  T  T  T </v>
   <v type="logical" >  T  T  T </v>
   <v type="logical" >  T  T  T </v>
   <v type="logical" >  T  T  T </v>
   <v type="logical" >  T  T  T </v>
   <v type="logical" >  T  T  T </v>
   <v type="logical" >  T  T  T </v>
   <v type="logical" >  T  T  T </v>
   <v type="logical" >  F  F  F </v>
   <v type="logical" >  F  F  F </v>
   <v type="logical" >  F  F  F </v>
   <v type="logical" >  F  F  F </v>
   <v type="logical" >  F  F  F </v>
   <v type="logical" >  F  F  F </v>
   <v type="logical" >  F  F  F </v>
   <v type="logical" >  F  F  F </v>
   <v type="logical" >  F  F  F </v>
   <v type="logical" >  F  F  F </v>
   <v type="logical" >  F  F  F </v>
   <v type="logical" >  F  F  F </v>
   <v type="logical" >  T  T  T </v>
   <v type="logical" >  T  T  T </v>
   <v type="logical" >  T  T  T </v>
   <v type="logical" >  T  T  T </v>
   <v type="logical" >  T  T  T </v>
   <v type="logical" >  T  T  T </v>
   <v type="logical" >  T  T  T </v>
   <v type="logical" >  T  T  T </v>
   <v type="logical" >  F  F  F </v>
   <v type="logical" >  F  F  F </v>
   <v type="logical" >  F  F  F </v>
   <v type="logical" >  F  F  F </v>
  </varray>
  <nose>
   <v>      -3.00000000       0.00000000       0.00010000       0.00010000 </v>
  </nose>
 </structure>
</modeling>
