hexagonal-FASnI3                        
           1
    14.637000    0.000000    0.000000
     0.000000    8.786000    0.000000
     0.000000    0.000000    8.288000
   C    H    I    N    Sn
     4    20    12     8     4
Direct configuration=     1
   0.65646743  0.53879834  0.27041478
   0.34135323  0.48869209  0.80474680
   0.84560662  0.03426624  0.77006606
   0.17382611  0.03638576  0.21775009
   0.65921374  0.42563255  0.05303538
   0.65487989  0.31350676  0.33123189
   0.65031646  0.44285606  0.49008031
   0.66323545  0.62179044  0.04448849
   0.65591618  0.65253139  0.32179247
   0.34144022  0.65554831  0.63335617
   0.45063023  0.62267187  0.85873148
   0.42740536  0.47256015  0.99176947
   0.25839538  0.51711670  0.61298193
   0.30511048  0.38725959  0.84295868
   0.85640989  0.84747110  0.91466567
   0.83914024  0.85147927  0.61879596
   0.83124090  0.02771834  0.52760744
   0.86321838  0.02385357  0.01040918
   0.84502978  0.15796180  0.77219503
   0.14035905  0.93554696  0.43320798
   0.17874271  0.80825187  0.17022383
   0.20506846  0.92945513  0.01092195
   0.14488498  0.13235415  0.43176887
   0.18403349  0.14726510  0.16294620
   0.58910000  0.23970000  0.79700000
   0.41090000  0.76030000  0.29700000
   0.91090000  0.73970000  0.29700000
   0.08910000  0.26030000  0.79700000
   0.33402000  0.99870000  0.75710000
   0.66598000  0.00130000  0.25710000
   0.16598000  0.49870000  0.25710000
   0.83402000  0.50130000  0.75710000
   0.41170000  0.24010000  0.20500000
   0.58830000  0.75990000  0.70500000
   0.08830000  0.74010000  0.70500000
   0.91170000  0.25990000  0.20500000
   0.65372597  0.42344238  0.36999223
   0.65943845  0.52678832  0.11290430
   0.40892814  0.53630840  0.89482899
   0.31405568  0.55605181  0.67248316
   0.83736115  0.96646138  0.63024928
   0.85430801  0.96254963  0.90766548
   0.18389799  0.91616941  0.12649111
   0.15198832  0.03335273  0.37108857
   0.50000000  0.00260000  0.00000000
   0.50000000  0.99740000  0.50000000
   0.00000000  0.50260000  0.50000000
   0.00000000  0.49740000  0.00000000
Direct configuration=     2
   0.65643165  0.53873352  0.27070164
   0.34137198  0.48901068  0.80512950
   0.84563379  0.03402064  0.77008989
   0.17377900  0.03649450  0.21784286
   0.65920752  0.42573544  0.05331650
   0.65486989  0.31337839  0.33134423
   0.65031709  0.44286225  0.49019118
   0.66323836  0.62176780  0.04461843
   0.65594281  0.65259353  0.32165532
   0.34150719  0.65539557  0.63316439
   0.45052335  0.62257286  0.85883792
   0.42730316  0.47260500  0.99179807
   0.25859724  0.51721334  0.61320671
   0.30496243  0.38693428  0.84302351
   0.85642874  0.84752327  0.91454583
   0.83912307  0.85164666  0.61858096
   0.83120566  0.02755413  0.52776454
   0.86324149  0.02384091  0.01045409
   0.84503647  0.15796378  0.77244975
   0.14034990  0.93556482  0.43331300
   0.17872167  0.80824270  0.17024009
   0.20504772  0.92951277  0.01080186
   0.14488356  0.13231413  0.43176984
   0.18399961  0.14732426  0.16285983
   0.58910000  0.23970000  0.79700000
   0.41090000  0.76030000  0.29700000
   0.91090000  0.73970000  0.29700000
   0.08910000  0.26030000  0.79700000
   0.33402000  0.99870000  0.75710000
   0.66598000  0.00130000  0.25710000
   0.16598000  0.49870000  0.25710000
   0.83402000  0.50130000  0.75710000
   0.41170000  0.24010000  0.20500000
   0.58830000  0.75990000  0.70500000
   0.08830000  0.74010000  0.70500000
   0.91170000  0.25990000  0.20500000
   0.65375097  0.42345995  0.36976746
   0.65945025  0.52688516  0.11258868
   0.40885468  0.53612829  0.89466655
   0.31386952  0.55583127  0.67197989
   0.83734726  0.96646858  0.63038134
   0.85430780  0.96260340  0.90750142
   0.18384350  0.91610162  0.12671502
   0.15199967  0.03319141  0.37098401
   0.50000000  0.00260000  0.00000000
   0.50000000  0.99740000  0.50000000
   0.00000000  0.50260000  0.50000000
   0.00000000  0.49740000  0.00000000
Direct configuration=     3
   0.65645806  0.53878137  0.27048989
   0.34135814  0.48877552  0.80484701
   0.84561374  0.03420193  0.77007230
   0.17381377  0.03641423  0.21777438
   0.65921211  0.42565949  0.05310899
   0.65487727  0.31347315  0.33126131
   0.65031663  0.44285768  0.49010934
   0.66323621  0.62178451  0.04452251
   0.65592315  0.65254766  0.32175656
   0.34145776  0.65550832  0.63330595
   0.45060225  0.62264594  0.85875935
   0.42737860  0.47257189  0.99177696
   0.25844823  0.51714200  0.61304079
   0.30507172  0.38717441  0.84297566
   0.85641483  0.84748476  0.91463429
   0.83913574  0.85152310  0.61873966
   0.83123167  0.02767534  0.52764857
   0.86322443  0.02385026  0.01042094
   0.84503153  0.15796232  0.77226173
   0.14035666  0.93555163  0.43323548
   0.17873720  0.80824946  0.17022809
   0.20506303  0.92947023  0.01089051
   0.14488461  0.13234367  0.43176912
   0.18402462  0.14728059  0.16292358
   0.58910000  0.23970000  0.79700000
   0.41090000  0.76030000  0.29700000
   0.91090000  0.73970000  0.29700000
   0.08910000  0.26030000  0.79700000
   0.33402000  0.99870000  0.75710000
   0.66598000  0.00130000  0.25710000
   0.16598000  0.49870000  0.25710000
   0.83402000  0.50130000  0.75710000
   0.41170000  0.24010000  0.20500000
   0.58830000  0.75990000  0.70500000
   0.08830000  0.74010000  0.70500000
   0.91170000  0.25990000  0.20500000
   0.65373252  0.42344698  0.36993337
   0.65944154  0.52681368  0.11282165
   0.40890891  0.53626124  0.89478646
   0.31400694  0.55599406  0.67235138
   0.83735751  0.96646326  0.63028386
   0.85430795  0.96256371  0.90762252
   0.18388372  0.91615166  0.12654974
   0.15199129  0.03331049  0.37106119
   0.50000000  0.00260000  0.00000000
   0.50000000  0.99740000  0.50000000
   0.00000000  0.50260000  0.50000000
   0.00000000  0.49740000  0.00000000
Direct configuration=     4
   0.65642978  0.53881130  0.27037851
   0.34110926  0.48893741  0.80493459
   0.84564205  0.03415273  0.77007941
   0.17376824  0.03646464  0.21778135
   0.65920617  0.42571453  0.05339100
   0.65486528  0.31332101  0.33138521
   0.65032173  0.44283920  0.49011531
   0.66324595  0.62186792  0.04459490
   0.65595514  0.65262909  0.32161010
   0.34151203  0.65525201  0.63303959
   0.45047250  0.62254124  0.85888846
   0.42724019  0.47262185  0.99182248
   0.25849946  0.51711414  0.61311912
   0.30493723  0.38692858  0.84302993
   0.85643980  0.84755070  0.91448231
   0.83911530  0.85167955  0.61846933
   0.83118375  0.02750492  0.52782209
   0.86325034  0.02381215  0.01041919
   0.84504123  0.15787920  0.77257698
   0.14034528  0.93554489  0.43336525
   0.17870569  0.80819460  0.17028354
   0.20500692  0.92952054  0.01088953
   0.14488615  0.13222850  0.43173888
   0.18397690  0.14735009  0.16282505
   0.58910000  0.23970000  0.79700000
   0.41090000  0.76030000  0.29700000
   0.91090000  0.73970000  0.29700000
   0.08910000  0.26030000  0.79700000
   0.33402000  0.99870000  0.75710000
   0.66598000  0.00130000  0.25710000
   0.16598000  0.49870000  0.25710000
   0.83402000  0.50130000  0.75710000
   0.41170000  0.24010000  0.20500000
   0.58830000  0.75990000  0.70500000
   0.08830000  0.74010000  0.70500000
   0.91170000  0.25990000  0.20500000
   0.65375395  0.42336507  0.36995488
   0.65944135  0.52690897  0.11289756
   0.40892660  0.53613729  0.89472446
   0.31410042  0.55585754  0.67221850
   0.83733545  0.96642667  0.63036225
   0.85432603  0.96253878  0.90762203
   0.18384854  0.91617534  0.12662399
   0.15198394  0.03324894  0.37109249
   0.50000000  0.00260000  0.00000000
   0.50000000  0.99740000  0.50000000
   0.00000000  0.50260000  0.50000000
   0.00000000  0.49740000  0.00000000
Direct configuration=     5
   0.65643192  0.53880904  0.27038694
   0.34112808  0.48892517  0.80492797
   0.84563991  0.03415645  0.77007887
   0.17377169  0.03646083  0.21778082
   0.65920662  0.42571037  0.05336968
   0.65486618  0.31333251  0.33137584
   0.65032134  0.44284060  0.49011486
   0.66324521  0.62186161  0.04458943
   0.65595272  0.65262293  0.32162118
   0.34150793  0.65527139  0.63305973
   0.45048231  0.62254916  0.85887870
   0.42725066  0.47261807  0.99181904
   0.25849558  0.51711625  0.61311319
   0.30494740  0.38694717  0.84302582
   0.85643791  0.84754572  0.91449380
   0.83911684  0.85166772  0.61848977
   0.83118738  0.02751781  0.52780897
   0.86324838  0.02381504  0.01041933
   0.84504049  0.15788549  0.77255314
   0.14034614  0.93554540  0.43335543
   0.17870808  0.80819875  0.17027934
   0.20501116  0.92951673  0.01088961
   0.14488603  0.13223721  0.43174117
   0.18398051  0.14734484  0.16283250
   0.58910000  0.23970000  0.79700000
   0.41090000  0.76030000  0.29700000
   0.91090000  0.73970000  0.29700000
   0.08910000  0.26030000  0.79700000
   0.33402000  0.99870000  0.75710000
   0.66598000  0.00130000  0.25710000
   0.16598000  0.49870000  0.25710000
   0.83402000  0.50130000  0.75710000
   0.41170000  0.24010000  0.20500000
   0.58830000  0.75990000  0.70500000
   0.08830000  0.74010000  0.70500000
   0.91170000  0.25990000  0.20500000
   0.65375233  0.42337126  0.36995326
   0.65944137  0.52690177  0.11289182
   0.40892526  0.53614667  0.89472915
   0.31409335  0.55586787  0.67222854
   0.83733711  0.96642943  0.63035633
   0.85432466  0.96254067  0.90762207
   0.18385120  0.91617355  0.12661838
   0.15198450  0.03325360  0.37109012
   0.50000000  0.00260000  0.00000000
   0.50000000  0.99740000  0.50000000
   0.00000000  0.50260000  0.50000000
   0.00000000  0.49740000  0.00000000
Direct configuration=     6
   0.65641891  0.53879682  0.27046057
   0.34101161  0.48887614  0.80509036
   0.84565557  0.03416791  0.77014038
   0.17374204  0.03647487  0.21777667
   0.65920290  0.42571862  0.05352886
   0.65485787  0.31324712  0.33146267
   0.65032561  0.44282715  0.49009820
   0.66325268  0.62193969  0.04461928
   0.65597267  0.65266262  0.32152616
   0.34156455  0.65511928  0.63284719
   0.45042483  0.62254603  0.85893896
   0.42715307  0.47262902  0.99189253
   0.25847785  0.51706320  0.61310432
   0.30487112  0.38690578  0.84303446
   0.85645841  0.84753218  0.91439817
   0.83910485  0.85167123  0.61831444
   0.83114647  0.02746476  0.52785874
   0.86326809  0.02378206  0.01041293
   0.84504779  0.15782563  0.77275501
   0.14033996  0.93552997  0.43343778
   0.17868550  0.80819106  0.17031586
   0.20495818  0.92954245  0.01094638
   0.14488381  0.13218470  0.43174425
   0.18393968  0.14737317  0.16278404
   0.58910000  0.23970000  0.79700000
   0.41090000  0.76030000  0.29700000
   0.91090000  0.73970000  0.29700000
   0.08910000  0.26030000  0.79700000
   0.33402000  0.99870000  0.75710000
   0.66598000  0.00130000  0.25710000
   0.16598000  0.49870000  0.25710000
   0.83402000  0.50130000  0.75710000
   0.41170000  0.24010000  0.20500000
   0.58830000  0.75990000  0.70500000
   0.08830000  0.74010000  0.70500000
   0.91170000  0.25990000  0.20500000
   0.65376465  0.42337226  0.36993393
   0.65943845  0.52695647  0.11291774
   0.40883240  0.53599753  0.89464882
   0.31416707  0.55578890  0.67217602
   0.83732118  0.96643991  0.63040591
   0.85434277  0.96253969  0.90764888
   0.18383698  0.91617488  0.12659287
   0.15197781  0.03322563  0.37111580
   0.50000000  0.00260000  0.00000000
   0.50000000  0.99740000  0.50000000
   0.00000000  0.50260000  0.50000000
   0.00000000  0.49740000  0.00000000
Direct configuration=     7
   0.65641232  0.53879063  0.27049786
   0.34095262  0.48885130  0.80517260
   0.84566350  0.03417371  0.77017154
   0.17372703  0.03648198  0.21777457
   0.65920102  0.42572280  0.05360948
   0.65485366  0.31320387  0.33150665
   0.65032777  0.44282033  0.49008976
   0.66325647  0.62197924  0.04463440
   0.65598277  0.65268272  0.32147804
   0.34159323  0.65504224  0.63273955
   0.45039571  0.62254445  0.85896948
   0.42710365  0.47263456  0.99192974
   0.25846887  0.51703634  0.61309982
   0.30483249  0.38688481  0.84303883
   0.85646879  0.84752533  0.91434974
   0.83909877  0.85167300  0.61822564
   0.83112576  0.02743790  0.52788394
   0.86327807  0.02376536  0.01040969
   0.84505148  0.15779532  0.77285725
   0.14033684  0.93552215  0.43347948
   0.17867406  0.80818716  0.17033436
   0.20493135  0.92955548  0.01097513
   0.14488268  0.13215811  0.43174580
   0.18391901  0.14738752  0.16275950
   0.58910000  0.23970000  0.79700000
   0.41090000  0.76030000  0.29700000
   0.91090000  0.73970000  0.29700000
   0.08910000  0.26030000  0.79700000
   0.33402000  0.99870000  0.75710000
   0.66598000  0.00130000  0.25710000
   0.16598000  0.49870000  0.25710000
   0.83402000  0.50130000  0.75710000
   0.41170000  0.24010000  0.20500000
   0.58830000  0.75990000  0.70500000
   0.08830000  0.74010000  0.70500000
   0.91170000  0.25990000  0.20500000
   0.65377089  0.42337276  0.36992415
   0.65943697  0.52698417  0.11293087
   0.40878537  0.53592200  0.89460814
   0.31420440  0.55574890  0.67214941
   0.83731310  0.96644522  0.63043102
   0.85435193  0.96253920  0.90766245
   0.18382978  0.91617556  0.12657995
   0.15197442  0.03321147  0.37112881
   0.50000000  0.00260000  0.00000000
   0.50000000  0.99740000  0.50000000
   0.00000000  0.50260000  0.50000000
   0.00000000  0.49740000  0.00000000
Direct configuration=     8
   0.65641426  0.53882193  0.27055105
   0.34085461  0.48873743  0.80519295
   0.84567098  0.03415765  0.77025834
   0.17369606  0.03645793  0.21775958
   0.65919776  0.42570581  0.05373587
   0.65484440  0.31317414  0.33160347
   0.65033341  0.44280709  0.49005783
   0.66326477  0.62206331  0.04466561
   0.65600113  0.65271539  0.32141158
   0.34169398  0.65489981  0.63248423
   0.45030416  0.62251073  0.85902463
   0.42697708  0.47263614  0.99203152
   0.25845857  0.51698879  0.61308722
   0.30472299  0.38689670  0.84305876
   0.85649650  0.84746908  0.91425997
   0.83908804  0.85161975  0.61806982
   0.83106973  0.02746919  0.52786530
   0.86330747  0.02373735  0.01044420
   0.84506009  0.15778378  0.77305902
   0.14033440  0.93550350  0.43355195
   0.17865011  0.80823011  0.17035454
   0.20487471  0.92958246  0.01098801
   0.14487465  0.13215176  0.43178964
   0.18386059  0.14738620  0.16273785
   0.58910000  0.23970000  0.79700000
   0.41090000  0.76030000  0.29700000
   0.91090000  0.73970000  0.29700000
   0.08910000  0.26030000  0.79700000
   0.33402000  0.99870000  0.75710000
   0.66598000  0.00130000  0.25710000
   0.16598000  0.49870000  0.25710000
   0.83402000  0.50130000  0.75710000
   0.41170000  0.24010000  0.20500000
   0.58830000  0.75990000  0.70500000
   0.08830000  0.74010000  0.70500000
   0.91170000  0.25990000  0.20500000
   0.65377787  0.42331882  0.36995339
   0.65942797  0.52703926  0.11300040
   0.40871947  0.53580633  0.89465832
   0.31419490  0.55553940  0.67210438
   0.83729630  0.96645606  0.63048695
   0.85437770  0.96249215  0.90768700
   0.18379548  0.91615862  0.12663254
   0.15196913  0.03316394  0.37112338
   0.50000000  0.00260000  0.00000000
   0.50000000  0.99740000  0.50000000
   0.00000000  0.50260000  0.50000000
   0.00000000  0.49740000  0.00000000
Direct configuration=     9
   0.65641559  0.53884347  0.27058764
   0.34078718  0.48865910  0.80520696
   0.84567613  0.03414661  0.77031806
   0.17367475  0.03644138  0.21774927
   0.65919553  0.42569413  0.05382282
   0.65483804  0.31315368  0.33167007
   0.65033729  0.44279798  0.49003587
   0.66327048  0.62212114  0.04468709
   0.65601377  0.65273786  0.32136587
   0.34176330  0.65480183  0.63230859
   0.45024118  0.62248753  0.85906256
   0.42689000  0.47263722  0.99210154
   0.25845148  0.51695608  0.61307855
   0.30464767  0.38690487  0.84307247
   0.85651556  0.84743039  0.91419822
   0.83908065  0.85158312  0.61796263
   0.83103119  0.02749072  0.52785248
   0.86332768  0.02371808  0.01046794
   0.84506600  0.15777585  0.77319782
   0.14033273  0.93549067  0.43360181
   0.17863364  0.80825966  0.17036842
   0.20483574  0.92960102  0.01099687
   0.14486913  0.13214740  0.43181979
   0.18382040  0.14738529  0.16272295
   0.58910000  0.23970000  0.79700000
   0.41090000  0.76030000  0.29700000
   0.91090000  0.73970000  0.29700000
   0.08910000  0.26030000  0.79700000
   0.33402000  0.99870000  0.75710000
   0.66598000  0.00130000  0.25710000
   0.16598000  0.49870000  0.25710000
   0.83402000  0.50130000  0.75710000
   0.41170000  0.24010000  0.20500000
   0.58830000  0.75990000  0.70500000
   0.08830000  0.74010000  0.70500000
   0.91170000  0.25990000  0.20500000
   0.65378267  0.42328171  0.36997350
   0.65942178  0.52707716  0.11304823
   0.40867413  0.53572676  0.89469284
   0.31418837  0.55539529  0.67207340
   0.83728474  0.96646352  0.63052542
   0.85439543  0.96245979  0.90770389
   0.18377188  0.91614697  0.12666872
   0.15196549  0.03313125  0.37111965
   0.50000000  0.00260000  0.00000000
   0.50000000  0.99740000  0.50000000
   0.00000000  0.50260000  0.50000000
   0.00000000  0.49740000  0.00000000
Direct configuration=    10
   0.65642338  0.53883907  0.27062041
   0.34076341  0.48859102  0.80518713
   0.84567532  0.03412660  0.77035777
   0.17364939  0.03643057  0.21776020
   0.65919329  0.42569435  0.05390081
   0.65483168  0.31313728  0.33172703
   0.65034098  0.44279044  0.49003893
   0.66327540  0.62215865  0.04472394
   0.65602533  0.65276945  0.32135397
   0.34182783  0.65461250  0.63215505
   0.45015709  0.62243303  0.85910529
   0.42679451  0.47261889  0.99220690
   0.25842714  0.51690588  0.61304878
   0.30454469  0.38690023  0.84310719
   0.85653829  0.84737606  0.91414561
   0.83907376  0.85156876  0.61788182
   0.83098864  0.02753149  0.52785626
   0.86335202  0.02368882  0.01050346
   0.84507184  0.15778456  0.77333013
   0.14033419  0.93547810  0.43363897
   0.17861492  0.80827602  0.17039017
   0.20479160  0.92961270  0.01100357
   0.14486352  0.13213316  0.43184642
   0.18377211  0.14736484  0.16272163
   0.58910000  0.23970000  0.79700000
   0.41090000  0.76030000  0.29700000
   0.91090000  0.73970000  0.29700000
   0.08910000  0.26030000  0.79700000
   0.33402000  0.99870000  0.75710000
   0.66598000  0.00130000  0.25710000
   0.16598000  0.49870000  0.25710000
   0.83402000  0.50130000  0.75710000
   0.41170000  0.24010000  0.20500000
   0.58830000  0.75990000  0.70500000
   0.08830000  0.74010000  0.70500000
   0.91170000  0.25990000  0.20500000
   0.65378570  0.42328060  0.36998513
   0.65941439  0.52710787  0.11308148
   0.40862124  0.53568255  0.89472763
   0.31418700  0.55531778  0.67200395
   0.83727078  0.96645784  0.63051505
   0.85441877  0.96240085  0.90774459
   0.18374824  0.91614671  0.12667473
   0.15195793  0.03312615  0.37113730
   0.50000000  0.00260000  0.00000000
   0.50000000  0.99740000  0.50000000
   0.00000000  0.50260000  0.50000000
   0.00000000  0.49740000  0.00000000
Direct configuration=    11
   0.65644675  0.53882586  0.27071869
   0.34069209  0.48838676  0.80512764
   0.84567290  0.03406659  0.77047689
   0.17357333  0.03639816  0.21779302
   0.65918660  0.42569500  0.05413479
   0.65481259  0.31308809  0.33189790
   0.65035206  0.44276781  0.49004812
   0.66329014  0.62227116  0.04483451
   0.65606002  0.65286425  0.32131828
   0.34202143  0.65404450  0.63169444
   0.44990482  0.62226953  0.85923349
   0.42650804  0.47256388  0.99252299
   0.25835412  0.51675529  0.61295947
   0.30423575  0.38688628  0.84321135
   0.85660647  0.84721305  0.91398778
   0.83905308  0.85152571  0.61763937
   0.83086098  0.02765380  0.52786759
   0.86342501  0.02360105  0.01061003
   0.84508934  0.15781069  0.77372704
   0.14033857  0.93544038  0.43375047
   0.17855875  0.80832511  0.17045542
   0.20465918  0.92964774  0.01102367
   0.14484669  0.13209045  0.43192630
   0.18362725  0.14730348  0.16271765
   0.58910000  0.23970000  0.79700000
   0.41090000  0.76030000  0.29700000
   0.91090000  0.73970000  0.29700000
   0.08910000  0.26030000  0.79700000
   0.33402000  0.99870000  0.75710000
   0.66598000  0.00130000  0.25710000
   0.16598000  0.49870000  0.25710000
   0.83402000  0.50130000  0.75710000
   0.41170000  0.24010000  0.20500000
   0.58830000  0.75990000  0.70500000
   0.08830000  0.74010000  0.70500000
   0.91170000  0.25990000  0.20500000
   0.65379477  0.42327725  0.37002001
   0.65939223  0.52720000  0.11318120
   0.40846257  0.53554991  0.89483199
   0.31418287  0.55508528  0.67179559
   0.83722891  0.96644082  0.63048392
   0.85448878  0.96222403  0.90786672
   0.18367731  0.91614593  0.12669277
   0.15193525  0.03311085  0.37119026
   0.50000000  0.00260000  0.00000000
   0.50000000  0.99740000  0.50000000
   0.00000000  0.50260000  0.50000000
   0.00000000  0.49740000  0.00000000
Direct configuration=    12
   0.65649350  0.53879946  0.27091526
   0.34054945  0.48797826  0.80500867
   0.84566805  0.03394657  0.77071513
   0.17342120  0.03633334  0.21785865
   0.65917322  0.42569630  0.05460276
   0.65477442  0.31298969  0.33223966
   0.65037420  0.44272255  0.49006648
   0.66331964  0.62249618  0.04505563
   0.65612940  0.65305384  0.32124689
   0.34240863  0.65290851  0.63077322
   0.44940028  0.62194253  0.85948987
   0.42593509  0.47245387  0.99315516
   0.25820808  0.51645412  0.61278085
   0.30361787  0.38685840  0.84341967
   0.85674283  0.84688704  0.91367212
   0.83901172  0.85143959  0.61715448
   0.83060566  0.02789843  0.52789026
   0.86357101  0.02342551  0.01082317
   0.84512435  0.15786297  0.77452088
   0.14034734  0.93536495  0.43397347
   0.17844642  0.80842330  0.17058593
   0.20439432  0.92971781  0.01106388
   0.14481303  0.13200503  0.43208608
   0.18333752  0.14718075  0.16270970
   0.58910000  0.23970000  0.79700000
   0.41090000  0.76030000  0.29700000
   0.91090000  0.73970000  0.29700000
   0.08910000  0.26030000  0.79700000
   0.33402000  0.99870000  0.75710000
   0.66598000  0.00130000  0.25710000
   0.16598000  0.49870000  0.25710000
   0.83402000  0.50130000  0.75710000
   0.41170000  0.24010000  0.20500000
   0.58830000  0.75990000  0.70500000
   0.08830000  0.74010000  0.70500000
   0.91170000  0.25990000  0.20500000
   0.65381291  0.42327056  0.37008979
   0.65934791  0.52738427  0.11338065
   0.40814523  0.53528464  0.89504072
   0.31417461  0.55462028  0.67137886
   0.83714518  0.96640678  0.63042167
   0.85462881  0.96187039  0.90811097
   0.18353546  0.91614436  0.12672885
   0.15188989  0.03308025  0.37129617
   0.50000000  0.00260000  0.00000000
   0.50000000  0.99740000  0.50000000
   0.00000000  0.50260000  0.50000000
   0.00000000  0.49740000  0.00000000
Direct configuration=    13
   0.65647822  0.53880809  0.27085099
   0.34059609  0.48811182  0.80504757
   0.84566963  0.03398581  0.77063724
   0.17347094  0.03635453  0.21783719
   0.65917760  0.42569588  0.05444976
   0.65478690  0.31302186  0.33212792
   0.65036696  0.44273735  0.49006048
   0.66330999  0.62242261  0.04498334
   0.65610672  0.65299185  0.32127023
   0.34228204  0.65327992  0.63107441
   0.44956524  0.62204944  0.85940605
   0.42612241  0.47248984  0.99294847
   0.25825582  0.51655259  0.61283925
   0.30381988  0.38686752  0.84335156
   0.85669825  0.84699363  0.91377533
   0.83902525  0.85146775  0.61731301
   0.83068913  0.02781845  0.52788285
   0.86352328  0.02348290  0.01075348
   0.84511291  0.15784588  0.77426133
   0.14034447  0.93538961  0.43390056
   0.17848314  0.80839120  0.17054326
   0.20448092  0.92969490  0.01105073
   0.14482403  0.13203296  0.43203384
   0.18343225  0.14722087  0.16271230
   0.58910000  0.23970000  0.79700000
   0.41090000  0.76030000  0.29700000
   0.91090000  0.73970000  0.29700000
   0.08910000  0.26030000  0.79700000
   0.33402000  0.99870000  0.75710000
   0.66598000  0.00130000  0.25710000
   0.16598000  0.49870000  0.25710000
   0.83402000  0.50130000  0.75710000
   0.41170000  0.24010000  0.20500000
   0.58830000  0.75990000  0.70500000
   0.08830000  0.74010000  0.70500000
   0.91170000  0.25990000  0.20500000
   0.65380698  0.42327275  0.37006697
   0.65936240  0.52732403  0.11331544
   0.40824899  0.53537137  0.89497248
   0.31417731  0.55477231  0.67151511
   0.83717256  0.96641791  0.63044202
   0.85458303  0.96198601  0.90803112
   0.18358184  0.91614488  0.12671705
   0.15190472  0.03309026  0.37126154
   0.50000000  0.00260000  0.00000000
   0.50000000  0.99740000  0.50000000
   0.00000000  0.50260000  0.50000000
   0.00000000  0.49740000  0.00000000
Direct configuration=    14
   0.65648811  0.53884422  0.27086890
   0.34056115  0.48805058  0.80499825
   0.84566684  0.03393946  0.77065804
   0.17343890  0.03635303  0.21786554
   0.65917499  0.42571808  0.05452252
   0.65478018  0.31300981  0.33217509
   0.65037080  0.44273547  0.49009202
   0.66331447  0.62244436  0.04503493
   0.65611944  0.65300815  0.32128347
   0.34235735  0.65305567  0.63090332
   0.44948549  0.62201097  0.85944712
   0.42601144  0.47247594  0.99305999
   0.25822467  0.51649060  0.61279431
   0.30370611  0.38687750  0.84338824
   0.85672666  0.84691350  0.91373913
   0.83901776  0.85148575  0.61724732
   0.83064188  0.02786095  0.52791972
   0.86355228  0.02342466  0.01079117
   0.84511715  0.15782833  0.77438801
   0.14034992  0.93538976  0.43392460
   0.17846181  0.80838649  0.17057111
   0.20443178  0.92970271  0.01104379
   0.14481760  0.13201901  0.43206170
   0.18337613  0.14719916  0.16271547
   0.58910000  0.23970000  0.79700000
   0.41090000  0.76030000  0.29700000
   0.91090000  0.73970000  0.29700000
   0.08910000  0.26030000  0.79700000
   0.33402000  0.99870000  0.75710000
   0.66598000  0.00130000  0.25710000
   0.16598000  0.49870000  0.25710000
   0.83402000  0.50130000  0.75710000
   0.41170000  0.24010000  0.20500000
   0.58830000  0.75990000  0.70500000
   0.08830000  0.74010000  0.70500000
   0.91170000  0.25990000  0.20500000
   0.65380965  0.42326950  0.37009395
   0.65935571  0.52732766  0.11333536
   0.40816748  0.53528199  0.89503008
   0.31418083  0.55466018  0.67146596
   0.83715814  0.96644014  0.63044620
   0.85460759  0.96195076  0.90803261
   0.18355275  0.91615377  0.12671879
   0.15189219  0.03307415  0.37130244
   0.50000000  0.00260000  0.00000000
   0.50000000  0.99740000  0.50000000
   0.00000000  0.50260000  0.50000000
   0.00000000  0.49740000  0.00000000
Direct configuration=    15
   0.65651777  0.53895260  0.27092263
   0.34045633  0.48786686  0.80485031
   0.84565846  0.03380042  0.77072044
   0.17334279  0.03634851  0.21795058
   0.65916716  0.42578467  0.05474080
   0.65476002  0.31297364  0.33231659
   0.65038232  0.44272982  0.49018663
   0.66332788  0.62250963  0.04518973
   0.65615759  0.65305705  0.32132322
   0.34258330  0.65238293  0.63039005
   0.44924625  0.62189553  0.85957035
   0.42567851  0.47243423  0.99339455
   0.25813119  0.51630463  0.61265951
   0.30336480  0.38690747  0.84349827
   0.85681191  0.84667310  0.91363056
   0.83899529  0.85153974  0.61705023
   0.83050012  0.02798847  0.52803032
   0.86363929  0.02324993  0.01090422
   0.84512986  0.15777570  0.77476804
   0.14036628  0.93539020  0.43399674
   0.17839783  0.80837235  0.17065464
   0.20428438  0.92972617  0.01102295
   0.14479830  0.13197716  0.43214527
   0.18320776  0.14713403  0.16272497
   0.58910000  0.23970000  0.79700000
   0.41090000  0.76030000  0.29700000
   0.91090000  0.73970000  0.29700000
   0.08910000  0.26030000  0.79700000
   0.33402000  0.99870000  0.75710000
   0.66598000  0.00130000  0.25710000
   0.16598000  0.49870000  0.25710000
   0.83402000  0.50130000  0.75710000
   0.41170000  0.24010000  0.20500000
   0.58830000  0.75990000  0.70500000
   0.08830000  0.74010000  0.70500000
   0.91170000  0.25990000  0.20500000
   0.65381766  0.42325978  0.37017486
   0.65933561  0.52733857  0.11339512
   0.40792296  0.53501387  0.89520289
   0.31419141  0.55432379  0.67131853
   0.83711491  0.96650683  0.63045876
   0.85468129  0.96184499  0.90803710
   0.18346550  0.91618046  0.12672399
   0.15185459  0.03302582  0.37142514
   0.50000000  0.00260000  0.00000000
   0.50000000  0.99740000  0.50000000
   0.00000000  0.50260000  0.50000000
   0.00000000  0.49740000  0.00000000
Direct configuration=    16
   0.65657711  0.53916935  0.27103008
   0.34024671  0.48749942  0.80455441
   0.84564169  0.03352234  0.77084523
   0.17315058  0.03633948  0.21812065
   0.65915150  0.42591786  0.05517737
   0.65471969  0.31290132  0.33259960
   0.65040536  0.44271852  0.49037587
   0.66335471  0.62264016  0.04549932
   0.65623390  0.65315485  0.32140270
   0.34303520  0.65103743  0.62936352
   0.44876776  0.62166467  0.85981680
   0.42501265  0.47235082  0.99406367
   0.25794425  0.51593271  0.61238991
   0.30268218  0.38696739  0.84371833
   0.85698241  0.84619231  0.91341342
   0.83895036  0.85164772  0.61665606
   0.83021659  0.02824349  0.52825152
   0.86381331  0.02290046  0.01113033
   0.84515530  0.15767043  0.77552809
   0.14039900  0.93539109  0.43414102
   0.17826985  0.80834408  0.17082170
   0.20398959  0.92977308  0.01098127
   0.14475969  0.13189345  0.43231241
   0.18287104  0.14700376  0.16274398
   0.58910000  0.23970000  0.79700000
   0.41090000  0.76030000  0.29700000
   0.91090000  0.73970000  0.29700000
   0.08910000  0.26030000  0.79700000
   0.33402000  0.99870000  0.75710000
   0.66598000  0.00130000  0.25710000
   0.16598000  0.49870000  0.25710000
   0.83402000  0.50130000  0.75710000
   0.41170000  0.24010000  0.20500000
   0.58830000  0.75990000  0.70500000
   0.08830000  0.74010000  0.70500000
   0.91170000  0.25990000  0.20500000
   0.65383368  0.42324032  0.37033668
   0.65929543  0.52736038  0.11351463
   0.40743391  0.53447762  0.89554851
   0.31421257  0.55365102  0.67102366
   0.83702845  0.96664022  0.63048386
   0.85482868  0.96163346  0.90804608
   0.18329099  0.91623384  0.12673440
   0.15177940  0.03292917  0.37167054
   0.50000000  0.00260000  0.00000000
   0.50000000  0.99740000  0.50000000
   0.00000000  0.50260000  0.50000000
   0.00000000  0.49740000  0.00000000
Direct configuration=    17
   0.65653944  0.53903175  0.27096187
   0.34037978  0.48773267  0.80474225
   0.84565233  0.03369887  0.77076601