  48  48   0   0
  0.2018876E+02  0.8837900E-09  0.8837900E-09  0.1240660E-08  0.5000000E-15
   1.0000000000000000E-004
  CAR 
 ortho-FASnI3                            
      8.99583109    -22.17003295  301      1.93806146      1.00000000
    -22.170  0.0000E+00  0.0000E+00
    -22.066  0.0000E+00  0.0000E+00
    -21.962  0.0000E+00  0.0000E+00
    -21.858  0.0000E+00  0.0000E+00
    -21.754  0.0000E+00  0.0000E+00
    -21.651  0.0000E+00  0.0000E+00
    -21.547  0.0000E+00  0.0000E+00
    -21.443  0.0000E+00  0.0000E+00
    -21.339  0.0000E+00  0.0000E+00
    -21.235  0.0000E+00  0.0000E+00
    -21.131  0.0000E+00  0.0000E+00
    -21.027  0.9013E-16  0.9363E-17
    -20.923  0.1463E-07  0.1520E-08
    -20.820  0.6300E-03  0.6545E-04
    -20.716  0.3232E-01  0.3423E-02
    -20.612  0.3116E-01  0.6660E-02
    -20.508  0.1279E-01  0.7988E-02
    -20.404  0.1141E-03  0.8000E-02
    -20.300  0.4721E-09  0.8000E-02
    -20.196  0.0000E+00  0.8000E-02
    -20.092  0.0000E+00  0.8000E-02
    -19.988  0.0000E+00  0.8000E-02
    -19.885  0.0000E+00  0.8000E-02
    -19.781  0.0000E+00  0.8000E-02
    -19.677  0.0000E+00  0.8000E-02
    -19.573  0.0000E+00  0.8000E-02
    -19.469  0.0000E+00  0.8000E-02
    -19.365  0.0000E+00  0.8000E-02
    -19.261  0.0000E+00  0.8000E-02
    -19.157  0.0000E+00  0.8000E-02
    -19.053  0.0000E+00  0.8000E-02
    -18.950  0.0000E+00  0.8000E-02
    -18.846  0.0000E+00  0.8000E-02
    -18.742  0.0000E+00  0.8000E-02
    -18.638  0.2599E-12  0.8000E-02
    -18.534  0.2467E-05  0.8000E-02
    -18.430  0.8583E-02  0.8892E-02
    -18.326  0.4818E-01  0.1390E-01
    -18.222  0.1818E-01  0.1579E-01
    -18.118  0.2058E-02  0.1600E-01
    -18.015  0.2789E-06  0.1600E-01
    -17.911  0.1041E-13  0.1600E-01
    -17.807  0.0000E+00  0.1600E-01
    -17.703  0.0000E+00  0.1600E-01
    -17.599  0.0000E+00  0.1600E-01
    -17.495  0.0000E+00  0.1600E-01
    -17.391  0.0000E+00  0.1600E-01
    -17.287  0.0000E+00  0.1600E-01
    -17.183  0.0000E+00  0.1600E-01
    -17.080  0.0000E+00  0.1600E-01
    -16.976  0.0000E+00  0.1600E-01
    -16.872  0.0000E+00  0.1600E-01
    -16.768  0.0000E+00  0.1600E-01
    -16.664  0.0000E+00  0.1600E-01
    -16.560  0.0000E+00  0.1600E-01
    -16.456  0.0000E+00  0.1600E-01
    -16.352  0.0000E+00  0.1600E-01
    -16.249  0.0000E+00  0.1600E-01
    -16.145  0.0000E+00  0.1600E-01
    -16.041  0.0000E+00  0.1600E-01
    -15.937  0.0000E+00  0.1600E-01
    -15.833  0.0000E+00  0.1600E-01
    -15.729  0.0000E+00  0.1600E-01
    -15.625  0.0000E+00  0.1600E-01
    -15.521  0.0000E+00  0.1600E-01
    -15.417  0.0000E+00  0.1600E-01
    -15.314  0.0000E+00  0.1600E-01
    -15.210  0.0000E+00  0.1600E-01
    -15.106  0.0000E+00  0.1600E-01
    -15.002  0.0000E+00  0.1600E-01
    -14.898  0.0000E+00  0.1600E-01
    -14.794  0.0000E+00  0.1600E-01
    -14.690  0.0000E+00  0.1600E-01
    -14.586  0.0000E+00  0.1600E-01
    -14.482  0.0000E+00  0.1600E-01
    -14.379  0.0000E+00  0.1600E-01
    -14.275  0.0000E+00  0.1600E-01
    -14.171  0.0000E+00  0.1600E-01
    -14.067  0.0000E+00  0.1600E-01
    -13.963  0.0000E+00  0.1600E-01
    -13.859  0.0000E+00  0.1600E-01
    -13.755  0.0000E+00  0.1600E-01
    -13.651  0.0000E+00  0.1600E-01
    -13.547  0.0000E+00  0.1600E-01
    -13.444  0.0000E+00  0.1600E-01
    -13.340  0.0000E+00  0.1600E-01
    -13.236  0.0000E+00  0.1600E-01
    -13.132  0.0000E+00  0.1600E-01
    -13.028  0.0000E+00  0.1600E-01
    -12.924  0.0000E+00  0.1600E-01
    -12.820  0.0000E+00  0.1600E-01
    -12.716  0.0000E+00  0.1600E-01
    -12.613  0.0000E+00  0.1600E-01
    -12.509  0.0000E+00  0.1600E-01
    -12.405  0.0000E+00  0.1600E-01
    -12.301  0.0000E+00  0.1600E-01
    -12.197  0.5011E-13  0.1600E-01
    -12.093  0.5618E-06  0.1600E-01
    -11.989  0.2915E-02  0.1630E-01
    -11.885  0.3990E-01  0.2045E-01
    -11.781  0.2734E-01  0.2329E-01
    -11.678  0.6850E-02  0.2400E-01
    -11.574  0.2080E-03  0.2402E-01
    -11.470  0.7740E-02  0.2482E-01
    -11.366  0.2611E-01  0.2754E-01
    -11.262  0.3309E-01  0.3097E-01
    -11.158  0.1569E-01  0.3260E-01
    -11.054  0.6119E-01  0.3896E-01
    -10.950  0.6504E-01  0.4572E-01
    -10.846  0.2168E-01  0.4797E-01
    -10.743  0.2896E-03  0.4800E-01
    -10.639  0.5296E-08  0.4800E-01
    -10.535  0.3337E-16  0.4800E-01
    -10.431  0.0000E+00  0.4800E-01
    -10.327  0.0000E+00  0.4800E-01
    -10.223  0.0000E+00  0.4800E-01
    -10.119  0.0000E+00  0.4800E-01
    -10.015  0.2671E-09  0.4800E-01
     -9.911  0.8871E-04  0.4801E-01
     -9.808  0.2006E-01  0.5009E-01
     -9.704  0.3872E-01  0.5412E-01
     -9.600  0.1713E-01  0.5589E-01
     -9.496  0.1012E-02  0.5600E-01
     -9.392  0.5030E-07  0.5600E-01
     -9.288  0.9254E-09  0.5600E-01
     -9.184  0.2404E-03  0.5602E-01
     -9.080  0.3434E-01  0.5959E-01
     -8.976  0.3172E-01  0.6289E-01
     -8.873  0.1067E-01  0.6399E-01
     -8.769  0.4891E-04  0.6400E-01
     -8.665  0.9132E-10  0.6400E-01
     -8.561  0.0000E+00  0.6400E-01
     -8.457  0.0000E+00  0.6400E-01
     -8.353  0.0000E+00  0.6400E-01
     -8.249  0.0000E+00  0.6400E-01
     -8.145  0.0000E+00  0.6400E-01
     -8.042  0.0000E+00  0.6400E-01
     -7.938  0.0000E+00  0.6400E-01
     -7.834  0.0000E+00  0.6400E-01
     -7.730  0.0000E+00  0.6400E-01
     -7.626  0.0000E+00  0.6400E-01
     -7.522  0.3499E-10  0.6400E-01
     -7.418  0.2984E-04  0.6400E-01
     -7.314  0.1347E-01  0.6540E-01
     -7.210  0.4269E-01  0.6984E-01
     -7.107  0.1709E-01  0.7161E-01
     -7.003  0.3719E-02  0.7200E-01
     -6.899  0.1434E-05  0.7200E-01
     -6.795  0.1732E-12  0.7200E-01
     -6.691  0.0000E+00  0.7200E-01
     -6.587  0.0000E+00  0.7200E-01
     -6.483  0.5562E-11  0.7200E-01
     -6.379  0.2856E-05  0.7200E-01
     -6.275  0.5968E-03  0.7206E-01
     -6.172  0.4790E-03  0.7211E-01
     -6.068  0.2767E-02  0.7240E-01
     -5.964  0.4266E-02  0.7284E-01
     -5.860  0.6111E-02  0.7348E-01
     -5.756  0.1836E-01  0.7539E-01
     -5.652  0.5428E-01  0.8102E-01
     -5.548  0.2605E-01  0.8373E-01
     -5.444  0.8868E-02  0.8465E-01
     -5.340  0.1221E-01  0.8592E-01
     -5.237  0.1029E-01  0.8699E-01
     -5.133  0.4706E-01  0.9188E-01
     -5.029  0.2962E-01  0.9495E-01
     -4.925  0.8471E-02  0.9583E-01
     -4.821  0.5193E-03  0.9589E-01
     -4.717  0.5787E-04  0.9589E-01
     -4.613  0.9136E-03  0.9599E-01
     -4.509  0.9869E-04  0.9600E-01
     -4.405  0.1068E-07  0.9600E-01
     -4.302  0.3138E-15  0.9600E-01
     -4.198  0.0000E+00  0.9600E-01
     -4.094  0.0000E+00  0.9600E-01
     -3.990  0.0000E+00  0.9600E-01
     -3.886  0.0000E+00  0.9600E-01
     -3.782  0.0000E+00  0.9600E-01
     -3.678  0.0000E+00  0.9600E-01
     -3.574  0.0000E+00  0.9600E-01
     -3.471  0.0000E+00  0.9600E-01
     -3.367  0.0000E+00  0.9600E-01
     -3.263  0.0000E+00  0.9600E-01
     -3.159  0.0000E+00  0.9600E-01
     -3.055  0.0000E+00  0.9600E-01
     -2.951  0.0000E+00  0.9600E-01
     -2.847  0.0000E+00  0.9600E-01
     -2.743  0.9682E-14  0.9600E-01
     -2.639  0.1273E-06  0.9600E-01
     -2.536  0.9262E-03  0.9610E-01
     -2.432  0.1649E-01  0.9781E-01
     -2.328  0.2137E-01  0.1000E+00
     -2.224  0.1404E-01  0.1015E+00
     -2.120  0.1556E-01  0.1031E+00
     -2.016  0.1458E-01  0.1046E+00
     -1.912  0.2258E-01  0.1070E+00
     -1.808  0.3955E-01  0.1111E+00
     -1.704  0.2976E-01  0.1142E+00
     -1.601  0.1853E-01  0.1161E+00
     -1.497  0.1313E-01  0.1175E+00
     -1.393  0.1647E-01  0.1192E+00
     -1.289  0.1741E-01  0.1210E+00
     -1.185  0.2672E-01  0.1238E+00
     -1.081  0.2310E-01  0.1262E+00
     -0.977  0.2968E-01  0.1292E+00
     -0.873  0.2974E-01  0.1323E+00
     -0.769  0.2658E-01  0.1351E+00
     -0.666  0.2813E-01  0.1380E+00
     -0.562  0.4123E-01  0.1423E+00
     -0.458  0.4468E-01  0.1469E+00
     -0.354  0.4542E-01  0.1516E+00
     -0.250  0.4690E-01  0.1565E+00
     -0.146  0.5051E-01  0.1618E+00
     -0.042  0.4764E-01  0.1667E+00
      0.062  0.2259E-01  0.1691E+00
      0.166  0.1545E-01  0.1707E+00
      0.269  0.5581E-02  0.1712E+00
      0.373  0.1065E-01  0.1724E+00
      0.477  0.7844E-02  0.1732E+00
      0.581  0.7757E-02  0.1740E+00
      0.685  0.3748E-02  0.1744E+00
      0.789  0.2842E-02  0.1747E+00
      0.893  0.1124E-02  0.1748E+00
      0.997  0.4913E-02  0.1753E+00
      1.100  0.3925E-02  0.1757E+00
      1.204  0.9168E-03  0.1758E+00
      1.308  0.9007E-03  0.1759E+00
      1.412  0.4175E-04  0.1759E+00
      1.516  0.2614E-06  0.1759E+00
      1.620  0.3112E-03  0.1759E+00
      1.724  0.7490E-03  0.1760E+00
      1.828  0.9047E-05  0.1760E+00
      1.932  0.5344E-10  0.1760E+00
      2.035  0.0000E+00  0.1760E+00
      2.139  0.0000E+00  0.1760E+00
      2.243  0.0000E+00  0.1760E+00
      2.347  0.0000E+00  0.1760E+00
      2.451  0.0000E+00  0.1760E+00
      2.555  0.1728E-16  0.1760E+00
      2.659  0.1772E-08  0.1760E+00
      2.763  0.4649E-04  0.1760E+00
      2.867  0.1041E-02  0.1761E+00
      2.970  0.2350E-02  0.1764E+00
      3.074  0.6244E-02  0.1770E+00
      3.178  0.8734E-02  0.1779E+00
      3.282  0.7578E-02  0.1787E+00
      3.386  0.1027E-01  0.1798E+00
      3.490  0.6973E-02  0.1805E+00
      3.594  0.1706E-02  0.1807E+00
      3.698  0.3390E-02  0.1810E+00
      3.802  0.5856E-02  0.1816E+00
      3.905  0.8590E-02  0.1825E+00
      4.009  0.1556E-01  0.1841E+00
      4.113  0.9398E-02  0.1851E+00
      4.217  0.7913E-02  0.1859E+00
      4.321  0.2211E-01  0.1882E+00
      4.425  0.3541E-01  0.1919E+00
      4.529  0.1930E-01  0.1939E+00
      4.633  0.9563E-02  0.1949E+00
      4.736  0.1251E-01  0.1962E+00
      4.840  0.9855E-02  0.1972E+00
      4.944  0.6406E-02  0.1979E+00
      5.048  0.6208E-02  0.1985E+00
      5.152  0.1115E-01  0.1997E+00
      5.256  0.6382E-02  0.2004E+00
      5.360  0.1439E-01  0.2019E+00
      5.464  0.9947E-02  0.2029E+00
      5.568  0.7621E-02  0.2037E+00
      5.671  0.9261E-02  0.2046E+00
      5.775  0.9191E-02  0.2056E+00
      5.879  0.1372E-01  0.2070E+00
      5.983  0.1790E-01  0.2089E+00
      6.087  0.1192E-01  0.2101E+00
      6.191  0.1366E-01  0.2115E+00
      6.295  0.1349E-01  0.2129E+00
      6.399  0.1267E-01  0.2143E+00
      6.503  0.1802E-01  0.2161E+00
      6.606  0.1822E-01  0.2180E+00
      6.710  0.2090E-01  0.2202E+00
      6.814  0.1930E-01  0.2222E+00
      6.918  0.2153E-01  0.2244E+00
      7.022  0.2100E-01  0.2266E+00
      7.126  0.2029E-01  0.2287E+00
      7.230  0.2840E-01  0.2317E+00
      7.334  0.2616E-01  0.2344E+00
      7.438  0.2425E-01  0.2369E+00
      7.541  0.2188E-01  0.2392E+00
      7.645  0.7666E-02  0.2400E+00
      7.749  0.1113E-03  0.2400E+00
      7.853  0.2172E-08  0.2400E+00
      7.957  0.1211E-16  0.2400E+00
      8.061  0.0000E+00  0.2400E+00
      8.165  0.0000E+00  0.2400E+00
      8.269  0.0000E+00  0.2400E+00
      8.373  0.0000E+00  0.2400E+00
      8.476  0.0000E+00  0.2400E+00
      8.580  0.0000E+00  0.2400E+00
      8.684  0.0000E+00  0.2400E+00
      8.788  0.0000E+00  0.2400E+00
      8.892  0.0000E+00  0.2400E+00
      8.996  0.0000E+00  0.2400E+00
