       N       E                     dE             d eps       ncg     rms          ort
DAV:   1     0.799866852448E+03    0.79987E+03   -0.92002E+04  1200   0.163E+03
DAV:   2    -0.477083313973E+03   -0.12770E+04   -0.12255E+04  1200   0.256E+02
DAV:   3    -0.639871594794E+03   -0.16279E+03   -0.16134E+03  1200   0.102E+02
DAV:   4    -0.644517955959E+03   -0.46464E+01   -0.46136E+01  1200   0.192E+01
DAV:   5    -0.644659979508E+03   -0.14202E+00   -0.14192E+00  1200   0.313E+00
SDA:   6    -0.579874830388E+03    0.64785E+02   -0.14192E+00  1200   0.728E+02 0.000E+00
CGA:   7    -0.591224339497E+03   -0.11350E+02   -0.11669E+02  1200   0.456E+01 0.331E+01
CGA:   8    -0.592728201482E+03   -0.15039E+01   -0.15007E+01  1200   0.151E+01 0.153E-01
CGA:   9    -0.593186031987E+03   -0.45783E+00   -0.45742E+00  1200   0.456E+00 0.394E-02
CGA:  10    -0.593325037674E+03   -0.13901E+00   -0.13897E+00  1200   0.124E+00 0.232E-03
CGA:  11    -0.593369270505E+03   -0.44233E-01   -0.44264E-01  1200   0.360E-01-0.247E-03
CGA:  12    -0.593380637088E+03   -0.11367E-01   -0.11368E-01  1200   0.748E-02-0.915E-05
CGA:  13    -0.593383359835E+03   -0.27227E-02   -0.27272E-02  1200   0.187E-02-0.307E-04
CGA:  14    -0.593384033615E+03   -0.67378E-03   -0.67365E-03  1200   0.414E-03 0.121E-05
CGA:  15    -0.593384190158E+03   -0.15654E-03   -0.15509E-03  1200   0.989E-04 0.108E-04
CGA:  16    -0.593384231665E+03   -0.41507E-04   -0.41350E-04  1200   0.258E-04 0.953E-06
CGA:  17    -0.593384242724E+03   -0.11059E-04   -0.11142E-04  1200   0.632E-05-0.482E-06
CGA:  18    -0.593384245120E+03   -0.23954E-05   -0.23122E-05  1200   0.147E-05 0.751E-06
   1 F= -.59338425E+03 E0= -.59338425E+03  d E =-.593384E+03
       N       E                     dE             d eps       ncg     rms          ort
SDA:   1    -0.593115103084E+03    0.26914E+00    0.00000E+00  1200   0.118E+01 0.000E+00
CGA:   2    -0.593378439704E+03   -0.26334E+00   -0.26338E+00  1200   0.202E+00-0.122E-02
CGA:   3    -0.593438643815E+03   -0.60204E-01   -0.60221E-01  1200   0.447E-01-0.604E-03
CGA:   4    -0.593451951066E+03   -0.13307E-01   -0.13300E-01  1200   0.126E-01 0.260E-03
CGA:   5    -0.593455565814E+03   -0.36147E-02   -0.36132E-02  1200   0.369E-02 0.148E-03
CGA:   6    -0.593456924723E+03   -0.13589E-02   -0.13585E-02  1200   0.107E-02 0.455E-05
CGA:   7    -0.593457291997E+03   -0.36727E-03   -0.36640E-03  1200   0.261E-03 0.140E-04
CGA:   8    -0.593457377955E+03   -0.85959E-04   -0.85361E-04  1200   0.542E-04 0.147E-04
CGA:   9    -0.593457399159E+03   -0.21204E-04   -0.21362E-04  1200   0.147E-04-0.177E-05
CGA:  10    -0.593457404881E+03   -0.57221E-05   -0.62629E-05  1200   0.615E-05-0.355E-05
CGA:  11    -0.593457406411E+03   -0.15302E-05   -0.15335E-05  1200   0.143E-05-0.114E-06
   2 F= -.59345741E+03 E0= -.59345741E+03  d E =-.731613E-01
       N       E                     dE             d eps       ncg     rms          ort
SDA:   1    -0.593412553452E+03    0.44851E-01    0.00000E+00  1200   0.176E+00 0.000E+00
CGA:   2    -0.593451766348E+03   -0.39213E-01   -0.39171E-01  1200   0.302E-01-0.707E-03
CGA:   3    -0.593460739580E+03   -0.89732E-02   -0.89749E-02  1200   0.674E-02-0.216E-03
CGA:   4    -0.593462705592E+03   -0.19660E-02   -0.19658E-02  1200   0.186E-02 0.887E-04
CGA:   5    -0.593463236028E+03   -0.53044E-03   -0.53097E-03  1200   0.533E-03 0.530E-04
CGA:   6    -0.593463437201E+03   -0.20117E-03   -0.20099E-03  1200   0.159E-03 0.242E-05
CGA:   7    -0.593463490755E+03   -0.53554E-04   -0.53356E-04  1200   0.380E-04 0.500E-05
CGA:   8    -0.593463502636E+03   -0.11881E-04   -0.11853E-04  1200   0.769E-05 0.492E-05
CGA:   9    -0.593463505964E+03   -0.33282E-05   -0.33606E-05  1200   0.250E-05-0.361E-06
   3 F= -.59346351E+03 E0= -.59346351E+03  d E =-.792608E-01
       N       E                     dE             d eps       ncg     rms          ort
SDA:   1    -0.593303642893E+03    0.15986E+00    0.00000E+00  1200   0.716E+00 0.000E+00
CGA:   2    -0.593458183055E+03   -0.15454E+00   -0.15459E+00  1200   0.133E+00-0.622E-03
CGA:   3    -0.593499364754E+03   -0.41182E-01   -0.41181E-01  1200   0.278E-01-0.220E-03
CGA:   4    -0.593506826974E+03   -0.74622E-02   -0.74665E-02  1200   0.678E-02 0.101E-03
CGA:   5    -0.593508696620E+03   -0.18696E-02   -0.18722E-02  1200   0.158E-02 0.759E-04
CGA:   6    -0.593509261855E+03   -0.56524E-03   -0.56517E-03  1200   0.481E-03 0.156E-05
CGA:   7    -0.593509440382E+03   -0.17853E-03   -0.17860E-03  1200   0.149E-03-0.125E-05
CGA:   8    -0.593509490631E+03   -0.50250E-04   -0.50071E-04  1200   0.333E-04 0.762E-05
CGA:   9    -0.593509502666E+03   -0.12035E-04   -0.12007E-04  1200   0.768E-05 0.945E-06
CGA:  10    -0.593509505911E+03   -0.32448E-05   -0.35028E-05  1200   0.310E-05-0.201E-05
   4 F= -.59350951E+03 E0= -.59350951E+03  d E =-.459999E-01
       N       E                     dE             d eps       ncg     rms          ort
SDA:   1    -0.592785400337E+03    0.72410E+00    0.00000E+00  1200   0.265E+01 0.000E+00
CGA:   2    -0.593354641071E+03   -0.56924E+00   -0.57007E+00  1200   0.494E+00-0.115E-02
CGA:   3    -0.593507252096E+03   -0.15261E+00   -0.15261E+00  1200   0.104E+00-0.396E-03
CGA:   4    -0.593535047821E+03   -0.27796E-01   -0.27807E-01  1200   0.255E-01 0.203E-03
CGA:   5    -0.593542078310E+03   -0.70305E-02   -0.70361E-02  1200   0.594E-02 0.148E-03
CGA:   6    -0.593544177350E+03   -0.20990E-02   -0.20989E-02  1200   0.179E-02 0.357E-05
CGA:   7    -0.593544838734E+03   -0.66138E-03   -0.66157E-03  1200   0.560E-03-0.331E-05
CGA:   8    -0.593545031873E+03   -0.19314E-03   -0.19273E-03  1200   0.130E-03 0.148E-04
CGA:   9    -0.593545077740E+03   -0.45867E-04   -0.45825E-04  1200   0.294E-04 0.181E-05
CGA:  10    -0.593545089175E+03   -0.11435E-04   -0.11689E-04  1200   0.838E-05-0.354E-05
CGA:  11    -0.593545091929E+03   -0.27545E-05   -0.27767E-05  1200   0.193E-05-0.426E-06
   5 F= -.59354509E+03 E0= -.59354509E+03  d E =-.815860E-01
       N       E                     dE             d eps       ncg     rms          ort
SDA:   1    -0.593383561914E+03    0.16153E+00    0.00000E+00  1200   0.569E+00 0.000E+00
CGA:   2    -0.593517067366E+03   -0.13351E+00   -0.13353E+00  1200   0.133E+00-0.392E-03
CGA:   3    -0.593558301732E+03   -0.41234E-01   -0.41233E-01  1200   0.240E-01-0.120E-03
CGA:   4    -0.593564806754E+03   -0.65050E-02   -0.65096E-02  1200   0.529E-02 0.906E-04
CGA:   5    -0.593566226342E+03   -0.14196E-02   -0.14219E-02  1200   0.118E-02 0.462E-04
CGA:   6    -0.593566640047E+03   -0.41370E-03   -0.41380E-03  1200   0.346E-03-0.295E-05
CGA:   7    -0.593566770403E+03   -0.13036E-03   -0.13030E-03  1200   0.114E-03 0.975E-06
CGA:   8    -0.593566809234E+03   -0.38831E-04   -0.38712E-04  1200   0.269E-04 0.583E-05
CGA:   9    -0.593566819281E+03   -0.10047E-04   -0.10028E-04  1200   0.640E-05 0.547E-06
CGA:  10    -0.593566821911E+03   -0.26304E-05   -0.27538E-05  1200   0.227E-05-0.125E-05
   6 F= -.59356682E+03 E0= -.59356682E+03  d E =-.217300E-01
       N       E                     dE             d eps       ncg     rms          ort
SDA:   1    -0.593565122063E+03    0.16972E-02    0.00000E+00  1200   0.583E-02 0.000E+00
CGA:   2    -0.593566505561E+03   -0.13835E-02   -0.13790E-02  1200   0.139E-02-0.496E-04
CGA:   3    -0.593566932273E+03   -0.42671E-03   -0.42656E-03  1200   0.252E-03-0.113E-04
CGA:   4    -0.593566996784E+03   -0.64511E-04   -0.65045E-04  1200   0.521E-04 0.853E-05
CGA:   5    -0.593567010167E+03   -0.13384E-04   -0.13681E-04  1200   0.108E-04 0.453E-05
CGA:   6    -0.593567014446E+03   -0.42781E-05   -0.42741E-05  1200   0.370E-05 0.780E-07
CGA:   7    -0.593567015781E+03   -0.13351E-05   -0.13292E-05  1200   0.120E-05 0.153E-06
CGA:   8    -0.593567016060E+03   -0.27933E-06   -0.30834E-06  1200   0.305E-06 0.394E-06
   7 F= -.59356702E+03 E0= -.59356702E+03  d E =-.219241E-01
       N       E                     dE             d eps       ncg     rms          ort
SDA:   1    -0.593560170442E+03    0.68453E-02    0.00000E+00  1200   0.354E-01 0.000E+00
CGA:   2    -0.593568488943E+03   -0.83185E-02   -0.83131E-02  1200   0.746E-02-0.747E-04
CGA:   3    -0.593570856863E+03   -0.23679E-02   -0.23681E-02  1200   0.123E-02-0.197E-04
CGA:   4    -0.593571216103E+03   -0.35924E-03   -0.35945E-03  1200   0.262E-03 0.119E-04
CGA:   5    -0.593571290509E+03   -0.74406E-04   -0.74491E-04  1200   0.724E-04 0.321E-05
CGA:   6    -0.593571315608E+03   -0.25099E-04   -0.25148E-04  1200   0.226E-04-0.136E-05
CGA:   7    -0.593571323939E+03   -0.83311E-05   -0.82955E-05  1200   0.644E-05 0.550E-06
CGA:   8    -0.593571326039E+03   -0.21008E-05   -0.20963E-05  1200   0.138E-05 0.779E-06
   8 F= -.59357133E+03 E0= -.59357133E+03  d E =-.430998E-02
       N       E                     dE             d eps       ncg     rms          ort
SDA:   1    -0.593541438293E+03    0.29886E-01    0.00000E+00  1200   0.104E+00 0.000E+00
CGA:   2    -0.593565839096E+03   -0.24401E-01   -0.24393E-01  1200   0.219E-01-0.122E-03
CGA:   3    -0.593572787893E+03   -0.69488E-02   -0.69490E-02  1200   0.362E-02-0.336E-04
CGA:   4    -0.593573847918E+03   -0.10600E-02   -0.10604E-02  1200   0.771E-03 0.203E-04
CGA:   5    -0.593574067087E+03   -0.21917E-03   -0.21932E-03  1200   0.214E-03 0.540E-05
CGA:   6    -0.593574140182E+03   -0.73095E-04   -0.73163E-04  1200   0.654E-04-0.231E-05
CGA:   7    -0.593574164823E+03   -0.24641E-04   -0.24576E-04  1200   0.192E-04 0.950E-06
CGA:   8    -0.593574171320E+03   -0.64970E-05   -0.64727E-05  1200   0.423E-05 0.139E-05
CGA:   9    -0.593574172983E+03   -0.16630E-05   -0.16650E-05  1200   0.103E-05-0.429E-07
   9 F= -.59357417E+03 E0= -.59357417E+03  d E =-.715692E-02
       N       E                     dE             d eps       ncg     rms          ort
SDA:   1    -0.593568597889E+03    0.55734E-02    0.00000E+00  1200   0.330E-01 0.000E+00
CGA:   2    -0.593575889050E+03   -0.72912E-02   -0.72882E-02  1200   0.561E-02-0.316E-04
CGA:   3    -0.593577653431E+03   -0.17644E-02   -0.17643E-02  1200   0.862E-03-0.112E-04
CGA:   4    -0.593577921527E+03   -0.26810E-03   -0.26812E-03  1200   0.185E-03 0.421E-05
CGA:   5    -0.593577975747E+03   -0.54220E-04   -0.54252E-04  1200   0.563E-04 0.117E-05
CGA:   6    -0.593577994425E+03   -0.18678E-04   -0.18688E-04  1200   0.171E-04-0.763E-06
CGA:   7    -0.593578000530E+03   -0.61053E-05   -0.60925E-05  1200   0.488E-05 0.289E-06
CGA:   8    -0.593578002156E+03   -0.16263E-05   -0.16240E-05  1200   0.107E-05 0.347E-06
  10 F= -.59357800E+03 E0= -.59357800E+03  d E =-.382917E-02
       N       E                     dE             d eps       ncg     rms          ort
SDA:   1    -0.593499936549E+03    0.78064E-01    0.00000E+00  1200   0.297E+00 0.000E+00
CGA:   2    -0.593565506599E+03   -0.65570E-01   -0.65569E-01  1200   0.505E-01-0.884E-04
CGA:   3    -0.593581386069E+03   -0.15879E-01   -0.15879E-01  1200   0.775E-02-0.369E-04
CGA:   4    -0.593583809934E+03   -0.24239E-02   -0.24239E-02  1200   0.168E-02 0.122E-04
CGA:   5    -0.593584300259E+03   -0.49032E-03   -0.49041E-03  1200   0.512E-03 0.356E-05
CGA:   6    -0.593584467011E+03   -0.16675E-03   -0.16677E-03  1200   0.151E-03-0.220E-05
CGA:   7    -0.593584522481E+03   -0.55470E-04   -0.55429E-04  1200   0.448E-04 0.795E-06
CGA:   8    -0.593584537817E+03   -0.15335E-04   -0.15313E-04  1200   0.102E-04 0.111E-05
CGA:   9    -0.593584541676E+03   -0.38599E-05   -0.38649E-05  1200   0.246E-05-0.102E-06
  11 F= -.59358454E+03 E0= -.59358454E+03  d E =-.103687E-01
       N       E                     dE             d eps       ncg     rms          ort
SDA:   1    -0.593567929079E+03    0.16609E-01    0.00000E+00  1200   0.695E-01 0.000E+00
CGA:   2    -0.593584270609E+03   -0.16342E-01   -0.16344E-01  1200   0.148E-01 0.222E-04
CGA:   3    -0.593589020545E+03   -0.47499E-02   -0.47499E-02  1200   0.234E-02 0.222E-05
CGA:   4    -0.593589730956E+03   -0.71041E-03   -0.71036E-03  1200   0.487E-03-0.307E-05
CGA:   5    -0.593589869381E+03   -0.13842E-03   -0.13836E-03  1200   0.138E-03-0.168E-05
CGA:   6    -0.593589915069E+03   -0.45688E-04   -0.45675E-04  1200   0.414E-04 0.104E-05
CGA:   7    -0.593589930970E+03   -0.15902E-04   -0.15900E-04  1200   0.132E-04 0.222E-07
CGA:   8    -0.593589935634E+03   -0.46642E-05   -0.46766E-05  1200   0.321E-05-0.374E-06
  12 F= -.59358994E+03 E0= -.59358994E+03  d E =-.539396E-02
       N       E                     dE             d eps       ncg     rms          ort
SDA:   1    -0.593532426204E+03    0.57505E-01    0.00000E+00  1200   0.192E+00 0.000E+00
CGA:   2    -0.593577716320E+03   -0.45290E-01   -0.45294E-01  1200   0.410E-01 0.386E-04
CGA:   3    -0.593590875414E+03   -0.13159E-01   -0.13159E-01  1200   0.648E-02 0.172E-05
CGA:   4    -0.593592841568E+03   -0.19662E-02   -0.19661E-02  1200   0.134E-02-0.555E-05
CGA:   5    -0.593593223899E+03   -0.38233E-03   -0.38224E-03  1200   0.382E-03-0.273E-05
CGA:   6    -0.593593350557E+03   -0.12666E-03   -0.12663E-03  1200   0.115E-03 0.176E-05
CGA:   7    -0.593593394508E+03   -0.43951E-04   -0.43951E-04  1200   0.364E-04 0.414E-08
CGA:   8    -0.593593407284E+03   -0.12776E-04   -0.12794E-04  1200   0.866E-05-0.609E-06
CGA:   9    -0.593593410246E+03   -0.29618E-05   -0.29613E-05  1200   0.182E-05 0.130E-07
  13 F= -.59359341E+03 E0= -.59359341E+03  d E =-.886857E-02
       N       E                     dE             d eps       ncg     rms          ort
SDA:   1    -0.593576200721E+03    0.17207E-01    0.00000E+00  1200   0.768E-01 0.000E+00
CGA:   2    -0.593592709353E+03   -0.16509E-01   -0.16514E-01  1200   0.118E-01 0.470E-04
CGA:   3    -0.593596396799E+03   -0.36874E-02   -0.36875E-02  1200   0.186E-02 0.140E-04
CGA:   4    -0.593596997515E+03   -0.60072E-03   -0.60074E-03  1200   0.432E-03-0.786E-05
CGA:   5    -0.593597128269E+03   -0.13075E-03   -0.13070E-03  1200   0.138E-03-0.332E-05
CGA:   6    -0.593597172734E+03   -0.44465E-04   -0.44462E-04  1200   0.392E-04 0.623E-06
CGA:   7    -0.593597187073E+03   -0.14340E-04   -0.14352E-04  1200   0.117E-04-0.267E-06
CGA:   8    -0.593597191185E+03   -0.41116E-05   -0.41341E-05  1200   0.302E-05-0.649E-06
  14 F= -.59359719E+03 E0= -.59359719E+03  d E =-.378094E-02
       N       E                     dE             d eps       ncg     rms          ort
SDA:   1    -0.593415044789E+03    0.18214E+00    0.00000E+00  1200   0.691E+00 0.000E+00
CGA:   2    -0.593563702275E+03   -0.14866E+00   -0.14868E+00  1200   0.106E+00 0.154E-03
CGA:   3    -0.593596931755E+03   -0.33229E-01   -0.33230E-01  1200   0.168E-01 0.316E-04
CGA:   4    -0.593602332126E+03   -0.54004E-02   -0.54004E-02  1200   0.386E-02-0.263E-04
CGA:   5    -0.593603505123E+03   -0.11730E-02   -0.11729E-02  1200   0.123E-02-0.931E-05
CGA:   6    -0.593603905087E+03   -0.39996E-03   -0.39995E-03  1200   0.353E-03 0.202E-05
CGA:   7    -0.593604033042E+03   -0.12795E-03   -0.12800E-03  1200   0.104E-03-0.945E-06
CGA:   8    -0.593604068611E+03   -0.35569E-04   -0.35613E-04  1200   0.250E-04-0.180E-05
CGA:   9    -0.593604077340E+03   -0.87291E-05   -0.87282E-05  1200   0.547E-05 0.361E-07
CGA:  10    -0.593604079242E+03   -0.19019E-05   -0.18934E-05  1200   0.121E-05 0.371E-06
  15 F= -.59360408E+03 E0= -.59360408E+03  d E =-.106690E-01
       N       E                     dE             d eps       ncg     rms          ort
SDA:   1    -0.593563462145E+03    0.40615E-01    0.00000E+00  1200   0.167E+00 0.000E+00
CGA:   2    -0.593600782828E+03   -0.37321E-01   -0.37327E-01  1200   0.296E-01 0.504E-04
CGA:   3    -0.593610144837E+03   -0.93620E-02   -0.93621E-02  1200   0.488E-02 0.108E-04
CGA:   4    -0.593611685976E+03   -0.15411E-02   -0.15410E-02  1200   0.107E-02-0.129E-04
CGA:   5    -0.593612006964E+03   -0.32099E-03   -0.32084E-03  1200   0.321E-03-0.689E-05
CGA:   6    -0.593612113087E+03   -0.10612E-03   -0.10613E-03  1200   0.941E-04-0.351E-06
CGA:   7    -0.593612148448E+03   -0.35361E-04   -0.35373E-04  1200   0.284E-04-0.219E-06
CGA:   8    -0.593612158328E+03   -0.98799E-05   -0.98939E-05  1200   0.692E-05-0.558E-06
CGA:   9    -0.593612160673E+03   -0.23444E-05   -0.23430E-05  1200   0.140E-05 0.668E-07
  16 F= -.59361216E+03 E0= -.59361216E+03  d E =-.808143E-02
       N       E                     dE             d eps       ncg     rms          ort
SDA:   1    -0.593484129567E+03    0.12803E+00    0.00000E+00  1200   0.456E+00 0.000E+00
CGA:   2    -0.593586179895E+03   -0.10205E+00   -0.10206E+00  1200   0.811E-01 0.893E-04
CGA:   3    -0.593611782858E+03   -0.25603E-01   -0.25603E-01  1200   0.134E-01 0.144E-04
CGA:   4    -0.593615998919E+03   -0.42161E-02   -0.42159E-02  1200   0.292E-02-0.222E-04
CGA:   5    -0.593616874695E+03   -0.87578E-03   -0.87555E-03  1200   0.876E-03-0.111E-04
CGA:   6    -0.593617165598E+03   -0.29090E-03   -0.29091E-03  1200   0.258E-03-0.562E-06
CGA:   7    -0.593617262469E+03   -0.96871E-04   -0.96894E-04  1200   0.779E-04-0.414E-06
CGA:   8    -0.593617289423E+03   -0.26954E-04   -0.26975E-04  1200   0.187E-04-0.899E-06
CGA:   9    -0.593617295867E+03   -0.64436E-05   -0.64405E-05  1200   0.386E-05 0.122E-06
CGA:  10    -0.593617297197E+03   -0.13305E-05   -0.13251E-05  1200   0.846E-06 0.335E-06
  17 F= -.59361730E+03 E0= -.59361730E+03  d E =-.132180E-01
       N       E                     dE             d eps       ncg     rms          ort
SDA:   1    -0.593569460268E+03    0.47836E-01    0.00000E+00  1200   0.195E+00 0.000E+00
CGA:   2    -0.593611607262E+03   -0.42147E-01   -0.42153E-01  1200   0.299E-01 0.496E-04
CGA:   3    -0.593620790116E+03   -0.91829E-02   -0.91830E-02  1200   0.470E-02 0.109E-04
CGA:   4    -0.593622306574E+03   -0.15165E-02   -0.15165E-02  1200   0.109E-02-0.777E-05
CGA:   5    -0.593622637534E+03   -0.33096E-03   -0.33085E-03  1200   0.347E-03-0.663E-05
CGA:   6    -0.593622750543E+03   -0.11301E-03   -0.11300E-03  1200   0.969E-04 0.962E-06
CGA:   7    -0.593622785847E+03   -0.35305E-04   -0.35300E-04  1200   0.282E-04 0.948E-07
CGA:   8    -0.593622795644E+03   -0.97969E-05   -0.98149E-05  1200   0.698E-05-0.737E-06
CGA:   9    -0.593622798068E+03   -0.24240E-05   -0.24247E-05  1200   0.149E-05-0.229E-07
  18 F= -.59362280E+03 E0= -.59362280E+03  d E =-.550087E-02
       N       E                     dE             d eps       ncg     rms          ort
SDA:   1    -0.593339940259E+03    0.28286E+00    0.00000E+00  1200   0.105E+01 0.000E+00
CGA:   2    -0.593567595061E+03   -0.22765E+00   -0.22769E+00  1200   0.162E+00 0.145E-03
CGA:   3    -0.593617190169E+03   -0.49595E-01   -0.49595E-01  1200   0.255E-01 0.126E-04
CGA:   4    -0.593625385717E+03   -0.81955E-02   -0.81956E-02  1200   0.585E-02-0.216E-04
CGA:   5    -0.593627168731E+03   -0.17830E-02   -0.17828E-02  1200   0.186E-02-0.145E-04
CGA:   6    -0.593627780418E+03   -0.61169E-03   -0.61166E-03  1200   0.525E-03 0.243E-05
CGA:   7    -0.593627971144E+03   -0.19073E-03   -0.19073E-03  1200   0.152E-03-0.414E-07
CGA:   8    -0.593628023230E+03   -0.52086E-04   -0.52120E-04  1200   0.364E-04-0.162E-05
CGA:   9    -0.593628036185E+03   -0.12955E-04   -0.12954E-04  1200   0.799E-05 0.245E-07
CGA:  10    -0.593628039005E+03   -0.28199E-05   -0.28076E-05  1200   0.179E-05 0.467E-06
  19 F= -.59362804E+03 E0= -.59362804E+03  d E =-.107418E-01
       N       E                     dE             d eps       ncg     rms          ort
SDA:   1    -0.593605597915E+03    0.22438E-01    0.00000E+00  1200   0.102E+00 0.000E+00
CGA:   2    -0.593627603469E+03   -0.22006E-01   -0.22009E-01  1200   0.149E-01 0.263E-04
CGA:   3    -0.593632155641E+03   -0.45522E-02   -0.45523E-02  1200   0.228E-02 0.803E-05
CGA:   4    -0.593632915048E+03   -0.75941E-03   -0.75943E-03  1200   0.504E-03-0.286E-05
CGA:   5    -0.593633081219E+03   -0.16617E-03   -0.16619E-03  1200   0.167E-03-0.290E-05
CGA:   6    -0.593633135327E+03   -0.54108E-04   -0.54105E-04  1200   0.475E-04 0.122E-05
CGA:   7    -0.593633152457E+03   -0.17130E-04   -0.17131E-04  1200   0.133E-04-0.426E-07
CGA:   8    -0.593633157039E+03   -0.45824E-05   -0.45925E-05  1200   0.335E-05-0.507E-06
  20 F= -.59363316E+03 E0= -.59363316E+03  d E =-.511803E-02
       N       E                     dE             d eps       ncg     rms          ort
SDA:   1    -0.593396008179E+03    0.23714E+00    0.00000E+00  1200   0.918E+00 0.000E+00
CGA:   2    -0.593594182894E+03   -0.19817E+00   -0.19820E+00  1200   0.134E+00 0.117E-03
CGA:   3    -0.593635158146E+03   -0.40975E-01   -0.40975E-01  1200   0.206E-01 0.958E-05
CGA:   4    -0.593641997939E+03   -0.68398E-02   -0.68399E-02  1200   0.453E-02-0.117E-04
CGA:   5    -0.593643489609E+03   -0.14917E-02   -0.14917E-02  1200   0.149E-02-0.756E-05
CGA:   6    -0.593643978808E+03   -0.48920E-03   -0.48917E-03  1200   0.432E-03 0.393E-05
CGA:   7    -0.593644132378E+03   -0.15357E-03   -0.15358E-03  1200   0.119E-03-0.338E-06
CGA:   8    -0.593644172641E+03   -0.40263E-04   -0.40281E-04  1200   0.285E-04-0.136E-05
CGA:   9    -0.593644182790E+03   -0.10149E-04   -0.10153E-04  1200   0.641E-05-0.106E-06
CGA:  10    -0.593644185070E+03   -0.22798E-05   -0.22715E-05  1200   0.147E-05 0.293E-06
  21 F= -.59364419E+03 E0= -.59364419E+03  d E =-.161461E-01
       N       E                     dE             d eps       ncg     rms          ort
SDA:   1    -0.592653111343E+03    0.99107E+00    0.00000E+00  1200   0.367E+01 0.000E+00
CGA:   2    -0.593445644506E+03   -0.79253E+00   -0.79280E+00  1200   0.537E+00 0.537E-03
CGA:   3    -0.593609330330E+03   -0.16369E+00   -0.16369E+00  1200   0.826E-01 0.481E-04
CGA:   4    -0.593636719660E+03   -0.27389E-01   -0.27389E-01  1200   0.182E-01-0.231E-04
CGA:   5    -0.593642714154E+03   -0.59945E-02   -0.59945E-02  1200   0.597E-02-0.970E-05
CGA:   6    -0.593644683533E+03   -0.19694E-02   -0.19693E-02  1200   0.173E-02 0.878E-05
CGA:   7    -0.593645298485E+03   -0.61495E-03   -0.61498E-03  1200   0.478E-03-0.959E-06
CGA:   8    -0.593645458951E+03   -0.16047E-03   -0.16049E-03  1200   0.112E-03-0.237E-05
CGA:   9    -0.593645499364E+03   -0.40413E-04   -0.40412E-04  1200   0.256E-04 0.185E-07
CGA:  10    -0.593645508760E+03   -0.93963E-05   -0.93791E-05  1200   0.616E-05 0.464E-06
CGA:  11    -0.593645511268E+03   -0.25075E-05   -0.25196E-05  1200   0.154E-05-0.167E-06
  22 F= -.59364551E+03 E0= -.59364551E+03  d E =-.174723E-01
       N       E                     dE             d eps       ncg     rms          ort
SDA:   1    -0.593433267397E+03    0.21224E+00    0.00000E+00  1200   0.796E+00 0.000E+00
CGA:   2    -0.593605210525E+03   -0.17194E+00   -0.17195E+00  1200   0.116E+00-0.355E-04
CGA:   3    -0.593640663431E+03   -0.35453E-01   -0.35452E-01  1200   0.178E-01-0.403E-04
CGA:   4    -0.593646578214E+03   -0.59148E-02   -0.59148E-02  1200   0.391E-02 0.117E-05
CGA:   5    -0.593647858932E+03   -0.12807E-02   -0.12808E-02  1200   0.128E-02 0.898E-05
CGA:   6    -0.593648284608E+03   -0.42568E-03   -0.42568E-03  1200   0.376E-03-0.332E-05
CGA:   7    -0.593648417254E+03   -0.13265E-03   -0.13266E-03  1200   0.103E-03-0.521E-06
CGA:   8    -0.593648451035E+03   -0.33781E-04   -0.33786E-04  1200   0.234E-04 0.152E-05
CGA:   9    -0.593648459582E+03   -0.85471E-05   -0.85364E-05  1200   0.537E-05 0.410E-06
CGA:  10    -0.593648461774E+03   -0.21923E-05   -0.22234E-05  1200   0.159E-05-0.428E-06
  23 F= -.59364846E+03 E0= -.59364846E+03  d E =-.204228E-01
       N       E                     dE             d eps       ncg     rms          ort
SDA:   1    -0.593623988484E+03    0.24471E-01    0.00000E+00  1200   0.872E-01 0.000E+00
CGA:   2    -0.593645787819E+03   -0.21799E-01   -0.21796E-01  1200   0.186E-01-0.350E-04
CGA:   3    -0.593651360864E+03   -0.55730E-02   -0.55729E-02  1200   0.296E-02-0.385E-05
CGA:   4    -0.593652245177E+03   -0.88431E-03   -0.88450E-03  1200   0.553E-03 0.529E-05
CGA:   5    -0.593652402545E+03   -0.15737E-03   -0.15741E-03  1200   0.146E-03 0.849E-06
CGA:   6    -0.593652450700E+03   -0.48155E-04   -0.48155E-04  1200   0.427E-04-0.559E-06
CGA:   7    -0.593652466823E+03   -0.16124E-04   -0.16094E-04  1200   0.135E-04 0.595E-06
CGA:   8    -0.593652471558E+03   -0.47348E-05   -0.47310E-05  1200   0.320E-05 0.288E-06
  24 F= -.59365247E+03 E0= -.59365247E+03  d E =-.400978E-02
       N       E                     dE             d eps       ncg     rms          ort
SDA:   1    -0.593641630832E+03    0.10836E-01    0.00000E+00  1200   0.353E-01 0.000E+00
CGA:   2    -0.593650477085E+03   -0.88463E-02   -0.88443E-02  1200   0.755E-02-0.236E-04
CGA:   3    -0.593652735482E+03   -0.22584E-02   -0.22583E-02  1200   0.120E-02-0.207E-05
CGA:   4    -0.593653093655E+03   -0.35817E-03   -0.35828E-03  1200   0.220E-03 0.355E-05
CGA:   5    -0.593653156902E+03   -0.63247E-04   -0.63267E-04  1200   0.587E-04 0.511E-06
CGA:   6    -0.593653176352E+03   -0.19450E-04   -0.19452E-04  1200   0.175E-04-0.369E-06
CGA:   7    -0.593653182878E+03   -0.65256E-05   -0.65058E-05  1200   0.542E-05 0.399E-06
CGA:   8    -0.593653184787E+03   -0.19098E-05   -0.19068E-05  1200   0.128E-05 0.177E-06
  25 F= -.59365318E+03 E0= -.59365318E+03  d E =-.472301E-02
       N       E                     dE             d eps       ncg     rms          ort
SDA:   1    -0.593651423913E+03    0.17590E-02    0.00000E+00  1200   0.112E-01 0.000E+00
CGA:   2    -0.593654235252E+03   -0.28113E-02   -0.28057E-02  1200   0.219E-02-0.711E-04
CGA:   3    -0.593654879626E+03   -0.64437E-03   -0.64413E-03  1200   0.413E-03-0.775E-05
CGA:   4    -0.593654997746E+03   -0.11812E-03   -0.11843E-03  1200   0.798E-04 0.814E-05
CGA:   5    -0.593655020545E+03   -0.22799E-04   -0.22896E-04  1200   0.222E-04 0.227E-05
CGA:   6    -0.593655028221E+03   -0.76760E-05   -0.76778E-05  1200   0.685E-05-0.129E-06
CGA:   7    -0.593655030497E+03   -0.22756E-05   -0.22677E-05  1200   0.175E-05 0.769E-06
CGA:   8    -0.593655031064E+03   -0.56712E-06   -0.57789E-06  1200   0.423E-06 0.428E-06
  26 F= -.59365503E+03 E0= -.59365503E+03  d E =-.184628E-02
       N       E                     dE             d eps       ncg     rms          ort
SDA:   1    -0.593626069219E+03    0.28961E-01    0.00000E+00  1200   0.101E+00 0.000E+00
CGA:   2    -0.593651220631E+03   -0.25151E-01   -0.25137E-01  1200   0.195E-01-0.212E-03
CGA:   3    -0.593657007552E+03   -0.57869E-02   -0.57862E-02  1200   0.370E-02-0.262E-04
CGA:   4    -0.593658087527E+03   -0.10800E-02   -0.10807E-02  1200   0.736E-03 0.247E-04
CGA:   5    -0.593658297399E+03   -0.20987E-03   -0.21012E-03  1200   0.206E-03 0.687E-05
CGA:   6    -0.593658365899E+03   -0.68500E-04   -0.68506E-04  1200   0.608E-04-0.548E-06
CGA:   7    -0.593658387864E+03   -0.21964E-04   -0.21858E-04  1200   0.171E-04 0.253E-05
CGA:   8    -0.593658393826E+03   -0.59623E-05   -0.59434E-05  1200   0.402E-05 0.143E-05
CGA:   9    -0.593658395521E+03   -0.16954E-05   -0.17140E-05  1200   0.116E-05-0.263E-06
  27 F= -.59365840E+03 E0= -.59365840E+03  d E =-.521073E-02
       N       E                     dE             d eps       ncg     rms          ort
SDA:   1    -0.593526224322E+03    0.13217E+00    0.00000E+00  1200   0.402E+00 0.000E+00
CGA:   2    -0.593626653940E+03   -0.10043E+00   -0.10041E+00  1200   0.780E-01-0.407E-03
CGA:   3    -0.593649775362E+03   -0.23121E-01   -0.23120E-01  1200   0.148E-01-0.588E-04
CGA:   4    -0.593654112448E+03   -0.43371E-02   -0.43385E-02  1200   0.298E-02 0.490E-04
CGA:   5    -0.593654957674E+03   -0.84523E-03   -0.84574E-03  1200   0.835E-03 0.139E-04
CGA:   6    -0.593655231917E+03   -0.27424E-03   -0.27425E-03  1200   0.243E-03-0.978E-06
CGA:   7    -0.593655321602E+03   -0.89684E-04   -0.89427E-04  1200   0.711E-04 0.516E-05
CGA:   8    -0.593655346507E+03   -0.24906E-04   -0.24843E-04  1200   0.171E-04 0.300E-05
CGA:   9    -0.593655353099E+03   -0.65913E-05   -0.66168E-05  1200   0.422E-05-0.524E-06
CGA:  10    -0.593655354625E+03   -0.15262E-05   -0.15359E-05  1200   0.107E-05-0.189E-06
  28 F= -.59365535E+03 E0= -.59365535E+03  d E =-.216984E-02
       N       E                     dE             d eps       ncg     rms          ort
SDA:   1    -0.593589182090E+03    0.66171E-01    0.00000E+00  1200   0.218E+00 0.000E+00
CGA:   2    -0.593643361253E+03   -0.54179E-01   -0.54199E-01  1200   0.419E-01 0.321E-03
CGA:   3    -0.593655821205E+03   -0.12460E-01   -0.12461E-01  1200   0.798E-02 0.314E-04
CGA:   4    -0.593658180550E+03   -0.23593E-02   -0.23583E-02  1200   0.163E-02-0.387E-04
CGA:   5    -0.593658642550E+03   -0.46200E-03   -0.46166E-03  1200   0.459E-03-0.935E-05
CGA:   6    -0.593658789645E+03   -0.14710E-03   -0.14709E-03  1200   0.130E-03 0.130E-05
CGA:   7    -0.593658839929E+03   -0.50284E-04   -0.50577E-04  1200   0.422E-04-0.420E-05
CGA:   8    -0.593658854541E+03   -0.14611E-04   -0.14693E-04  1200   0.109E-04-0.223E-05
CGA:   9    -0.593658857843E+03   -0.33024E-05   -0.33041E-05  1200   0.201E-05 0.507E-06
  29 F= -.59365886E+03 E0= -.59365886E+03  d E =-.567306E-02
       N       E                     dE             d eps       ncg     rms          ort
SDA:   1    -0.593656617500E+03    0.22370E-02    0.00000E+00  1200   0.116E-01 0.000E+00
CGA:   2    -0.593659618559E+03   -0.30011E-02   -0.29964E-02  1200   0.240E-02-0.706E-04
CGA:   3    -0.593660300677E+03   -0.68212E-03   -0.68200E-03  1200   0.488E-03-0.310E-05
CGA:   4    -0.593660432305E+03   -0.13163E-03   -0.13204E-03  1200   0.975E-04 0.856E-05
CGA:   5    -0.593660459779E+03   -0.27474E-04   -0.27599E-04  1200   0.243E-04 0.318E-05
CGA:   6    -0.593660468273E+03   -0.84936E-05   -0.84912E-05  1200   0.741E-05 0.119E-06
CGA:   7    -0.593660470791E+03   -0.25181E-05   -0.25046E-05  1200   0.201E-05 0.695E-06
CGA:   8    -0.593660471450E+03   -0.65859E-06   -0.66527E-06  1200   0.488E-06 0.462E-06
  30 F= -.59366047E+03 E0= -.59366047E+03  d E =-.161361E-02
       N       E                     dE             d eps       ncg     rms          ort
SDA:   1    -0.593631585669E+03    0.28885E-01    0.00000E+00  1200   0.932E-01 0.000E+00
CGA:   2    -0.593655549211E+03   -0.23964E-01   -0.23952E-01  1200   0.191E-01-0.197E-03
CGA:   3    -0.593661011785E+03   -0.54626E-02   -0.54621E-02  1200   0.392E-02-0.118E-04
CGA:   4    -0.593662083411E+03   -0.10716E-02   -0.10727E-02  1200   0.800E-03 0.242E-04
CGA:   5    -0.593662308984E+03   -0.22557E-03   -0.22588E-03  1200   0.203E-03 0.916E-05
CGA:   6    -0.593662377643E+03   -0.68659E-04   -0.68653E-04  1200   0.603E-04 0.255E-06
CGA:   7    -0.593662399346E+03   -0.21703E-04   -0.21610E-04  1200   0.177E-04 0.208E-05
CGA:   8    -0.593662405595E+03   -0.62493E-05   -0.62135E-05  1200   0.423E-05 0.146E-05
CGA:   9    -0.593662407359E+03   -0.17643E-05   -0.17785E-05  1200   0.122E-05-0.202E-06
  31 F= -.59366241E+03 E0= -.59366241E+03  d E =-.354952E-02
       N       E                     dE             d eps       ncg     rms          ort
SDA:   1    -0.593658175434E+03    0.42302E-02    0.00000E+00  1200   0.183E-01 0.000E+00
CGA:   2    -0.593662881048E+03   -0.47056E-02   -0.47006E-02  1200   0.378E-02-0.772E-04
CGA:   3    -0.593663946447E+03   -0.10654E-02   -0.10654E-02  1200   0.838E-03-0.659E-06
CGA:   4    -0.593664167834E+03   -0.22139E-03   -0.22190E-03  1200   0.172E-03 0.962E-05
CGA:   5    -0.593664216678E+03   -0.48844E-04   -0.49000E-04  1200   0.412E-04 0.464E-05
CGA:   6    -0.593664231088E+03   -0.14410E-04   -0.14403E-04  1200   0.132E-04 0.237E-06
CGA:   7    -0.593664235684E+03   -0.45960E-05   -0.45755E-05  1200   0.375E-05 0.709E-06
CGA:   8    -0.593664236943E+03   -0.12594E-05   -0.12579E-05  1200   0.853E-06 0.611E-06
  32 F= -.59366424E+03 E0= -.59366424E+03  d E =-.182958E-02
       N       E                     dE             d eps       ncg     rms          ort
SDA:   1    -0.593612178049E+03    0.52058E-01    0.00000E+00  1200   0.165E+00 0.000E+00
CGA:   2    -0.593654405419E+03   -0.42227E-01   -0.42218E-01  1200   0.339E-01-0.217E-03
CGA:   3    -0.593664005658E+03   -0.96002E-02   -0.95998E-02  1200   0.755E-02-0.765E-05
CGA:   4    -0.593666020155E+03   -0.20145E-02   -0.20160E-02  1200   0.156E-02 0.293E-04
CGA:   5    -0.593666468795E+03   -0.44864E-03   -0.44903E-03  1200   0.382E-03 0.143E-04
CGA:   6    -0.593666598551E+03   -0.12976E-03   -0.12974E-03  1200   0.119E-03 0.640E-06
CGA:   7    -0.593666641011E+03   -0.42460E-04   -0.42369E-04  1200   0.353E-04 0.215E-05
CGA:   8    -0.593666653553E+03   -0.12542E-04   -0.12478E-04  1200   0.821E-05 0.197E-05
CGA:   9    -0.593666656793E+03   -0.32403E-05   -0.32560E-05  1200   0.217E-05-0.265E-06
  33 F= -.59366666E+03 E0= -.59366666E+03  d E =-.424943E-02
       N       E                     dE             d eps       ncg     rms          ort
SDA:   1    -0.593657147057E+03    0.95065E-02    0.00000E+00  1200   0.366E-01 0.000E+00
CGA:   2    -0.593666558654E+03   -0.94116E-02   -0.94032E-02  1200   0.690E-02-0.134E-03
CGA:   3    -0.593668536995E+03   -0.19783E-02   -0.19782E-02  1200   0.152E-02-0.468E-05
CGA:   4    -0.593668933835E+03   -0.39684E-03   -0.39748E-03  1200   0.316E-03 0.113E-04
CGA:   5    -0.593669023708E+03   -0.89873E-04   -0.90061E-04  1200   0.752E-04 0.579E-05
CGA:   6    -0.593669050078E+03   -0.26370E-04   -0.26366E-04  1200   0.238E-04 0.112E-06
CGA:   7    -0.593669058282E+03   -0.82044E-05   -0.81736E-05  1200   0.672E-05 0.114E-05
CGA:   8    -0.593669060565E+03   -0.22827E-05   -0.22772E-05  1200   0.152E-05 0.936E-06
  34 F= -.59366906E+03 E0= -.59366906E+03  d E =-.240377E-02
       N       E                     dE             d eps       ncg     rms          ort
SDA:   1    -0.593586367777E+03    0.82691E-01    0.00000E+00  1200   0.263E+00 0.000E+00
CGA:   2    -0.593653763604E+03   -0.67396E-01   -0.67383E-01  1200   0.494E-01-0.330E-03
CGA:   3    -0.593667981823E+03   -0.14218E-01   -0.14217E-01  1200   0.109E-01-0.235E-04
CGA:   4    -0.593670852538E+03   -0.28707E-02   -0.28724E-02  1200   0.228E-02 0.302E-04
CGA:   5    -0.593671506306E+03   -0.65377E-03   -0.65419E-03  1200   0.549E-03 0.159E-04
CGA:   6    -0.593671695274E+03   -0.18897E-03   -0.18896E-03  1200   0.170E-03 0.355E-06
CGA:   7    -0.593671755446E+03   -0.60172E-04   -0.60048E-04  1200   0.502E-04 0.317E-05
CGA:   8    -0.593671773207E+03   -0.17762E-04   -0.17679E-04  1200   0.116E-04 0.270E-05
CGA:   9    -0.593671777772E+03   -0.45641E-05   -0.45750E-05  1200   0.288E-05-0.185E-06
  35 F= -.59367178E+03 E0= -.59367178E+03  d E =-.512098E-02
       N       E                     dE             d eps       ncg     rms          ort
SDA:   1    -0.593669135836E+03    0.26374E-02    0.00000E+00  1200   0.129E-01 0.000E+00
CGA:   2    -0.593672451278E+03   -0.33154E-02   -0.33096E-02  1200   0.230E-02-0.913E-04
CGA:   3    -0.593673103590E+03   -0.65231E-03   -0.65223E-03  1200   0.523E-03-0.213E-05
CGA:   4    -0.593673237078E+03   -0.13349E-03   -0.13393E-03  1200   0.111E-03 0.719E-05
CGA:   5    -0.593673268894E+03   -0.31816E-04   -0.31936E-04  1200   0.266E-04 0.379E-05
CGA:   6    -0.593673278459E+03   -0.95646E-05   -0.95546E-05  1200   0.881E-05 0.298E-06
CGA:   7    -0.593673281358E+03   -0.28998E-05   -0.28920E-05  1200   0.233E-05 0.813E-06
CGA:   8    -0.593673282079E+03   -0.72005E-06   -0.73533E-06  1200   0.549E-06 0.598E-06
  36 F= -.59367328E+03 E0= -.59367328E+03  d E =-.150431E-02
       N       E                     dE             d eps       ncg     rms          ort
SDA:   1    -0.593639384816E+03    0.33897E-01    0.00000E+00  1200   0.116E+00 0.000E+00
CGA:   2    -0.593669084561E+03   -0.29700E-01   -0.29686E-01  1200   0.206E-01-0.270E-03
CGA:   3    -0.593674967323E+03   -0.58828E-02   -0.58824E-02  1200   0.470E-02-0.115E-04
CGA:   4    -0.593676185812E+03   -0.12185E-02   -0.12196E-02  1200   0.101E-02 0.216E-04
CGA:   5    -0.593676479216E+03   -0.29340E-03   -0.29363E-03  1200   0.247E-03 0.119E-04
CGA:   6    -0.593676565068E+03   -0.85852E-04   -0.85825E-04  1200   0.784E-04 0.757E-06
CGA:   7    -0.593676592205E+03   -0.27137E-04   -0.27049E-04  1200   0.220E-04 0.258E-05
CGA:   8    -0.593676599849E+03   -0.76449E-05   -0.75994E-05  1200   0.492E-05 0.201E-05
CGA:   9    -0.593676601887E+03   -0.20373E-05   -0.20445E-05  1200   0.137E-05-0.102E-06
  37 F= -.59367660E+03 E0= -.59367660E+03  d E =-.482412E-02
       N       E                     dE             d eps       ncg     rms          ort
SDA:   1    -0.593529221573E+03    0.14738E+00    0.00000E+00  1200   0.463E+00 0.000E+00
CGA:   2    -0.593647762560E+03   -0.11854E+00   -0.11853E+00  1200   0.820E-01-0.477E-03
CGA:   3    -0.593671287512E+03   -0.23525E-01   -0.23523E-01  1200   0.188E-01-0.401E-04
CGA:   4    -0.593676167834E+03   -0.48803E-02   -0.48829E-02  1200   0.407E-02 0.422E-04
CGA:   5    -0.593677350060E+03   -0.11822E-02   -0.11828E-02  1200   0.998E-03 0.235E-04
CGA:   6    -0.593677693841E+03   -0.34378E-03   -0.34373E-03  1200   0.315E-03 0.161E-05
CGA:   7    -0.593677804241E+03   -0.11040E-03   -0.11022E-03  1200   0.908E-04 0.508E-05
CGA:   8    -0.593677836304E+03   -0.32063E-04   -0.31934E-04  1200   0.207E-04 0.414E-05
CGA:   9    -0.593677844306E+03   -0.80024E-05   -0.80158E-05  1200   0.514E-05-0.258E-06
CGA:  10    -0.593677846246E+03   -0.19396E-05   -0.19692E-05  1200   0.136E-05-0.444E-06
  38 F= -.59367785E+03 E0= -.59367785E+03  d E =-.606847E-02
       N       E                     dE             d eps       ncg     rms          ort
SDA:   1    -0.593661582331E+03    0.16262E-01    0.00000E+00  1200   0.523E-01 0.000E+00
CGA:   2    -0.593674851021E+03   -0.13269E-01   -0.13281E-01  1200   0.913E-02 0.183E-03
CGA:   3    -0.593677488603E+03   -0.26376E-02   -0.26378E-02  1200   0.210E-02 0.437E-05
CGA:   4    -0.593678041991E+03   -0.55339E-03   -0.55252E-03  1200   0.463E-03-0.150E-04
CGA:   5    -0.593678177492E+03   -0.13550E-03   -0.13533E-03  1200   0.117E-03-0.770E-05
CGA:   6    -0.593678216175E+03   -0.38683E-04   -0.38688E-04  1200   0.354E-04-0.260E-06
CGA:   7    -0.593678229173E+03   -0.12998E-04   -0.13097E-04  1200   0.114E-04-0.180E-05
CGA:   8    -0.593678233325E+03   -0.41519E-05   -0.42679E-05  1200   0.323E-05-0.155E-05
  39 F= -.59367823E+03 E0= -.59367823E+03  d E =-.645555E-02
       N       E                     dE             d eps       ncg     rms          ort
SDA:   1    -0.593667592928E+03    0.10636E-01    0.00000E+00  1200   0.382E-01 0.000E+00
CGA:   2    -0.593677652187E+03   -0.10059E-01   -0.10051E-01  1200   0.742E-02-0.150E-03
CGA:   3    -0.593679823281E+03   -0.21711E-02   -0.21710E-02  1200   0.165E-02-0.283E-05
CGA:   4    -0.593680240599E+03   -0.41732E-03   -0.41827E-03  1200   0.346E-03 0.147E-04
CGA:   5    -0.593680341067E+03   -0.10047E-03   -0.10067E-03  1200   0.802E-04 0.740E-05
CGA:   6    -0.593680369855E+03   -0.28787E-04   -0.28775E-04  1200   0.266E-04 0.333E-06
CGA:   7    -0.593680378944E+03   -0.90899E-05   -0.90573E-05  1200   0.759E-05 0.142E-05
CGA:   8    -0.593680381485E+03   -0.25410E-05   -0.25398E-05  1200   0.165E-05 0.111E-05
  40 F= -.59368038E+03 E0= -.59368038E+03  d E =-.214816E-02
       N       E                     dE             d eps       ncg     rms          ort
SDA:   1    -0.593615936317E+03    0.64443E-01    0.00000E+00  1200   0.199E+00 0.000E+00
CGA:   2    -0.593668176426E+03   -0.52240E-01   -0.52225E-01  1200   0.385E-01-0.322E-03
CGA:   3    -0.593679491853E+03   -0.11315E-01   -0.11315E-01  1200   0.856E-02-0.121E-04
CGA:   4    -0.593681677933E+03   -0.21861E-02   -0.21882E-02  1200   0.180E-02 0.337E-04
CGA:   5    -0.593682204970E+03   -0.52704E-03   -0.52741E-03  1200   0.426E-03 0.171E-04
CGA:   6    -0.593682355400E+03   -0.15043E-03   -0.15040E-03  1200   0.139E-03 0.747E-06
CGA:   7    -0.593682404182E+03   -0.48782E-04   -0.48665E-04  1200   0.413E-04 0.334E-05
CGA:   8    -0.593682418594E+03   -0.14412E-04   -0.14350E-04  1200   0.910E-05 0.267E-05
CGA:   9    -0.593682422213E+03   -0.36187E-05   -0.36294E-05  1200   0.231E-05-0.185E-06
  41 F= -.59368242E+03 E0= -.59368242E+03  d E =-.418889E-02
       N       E                     dE             d eps       ncg     rms          ort
SDA:   1    -0.593667241364E+03    0.15177E-01    0.00000E+00  1200   0.535E-01 0.000E+00
CGA:   2    -0.593681157002E+03   -0.13916E-01   -0.13905E-01  1200   0.977E-02-0.166E-03
CGA:   3    -0.593684111310E+03   -0.29543E-02   -0.29542E-02  1200   0.210E-02-0.720E-05
CGA:   4    -0.593684647087E+03   -0.53578E-03   -0.53667E-03  1200   0.451E-03 0.138E-04
CGA:   5    -0.593684777241E+03   -0.13015E-03   -0.13037E-03  1200   0.107E-03 0.724E-05
CGA:   6    -0.593684815451E+03   -0.38210E-04   -0.38194E-04  1200   0.351E-04 0.449E-06
CGA:   7    -0.593684827544E+03   -0.12093E-04   -0.12055E-04  1200   0.100E-04 0.156E-05
CGA:   8    -0.593684830965E+03   -0.34210E-05   -0.34119E-05  1200   0.220E-05 0.112E-05
  42 F= -.59368483E+03 E0= -.59368483E+03  d E =-.240875E-02
       N       E                     dE             d eps       ncg     rms          ort
SDA:   1    -0.593629128478E+03    0.55699E-01    0.00000E+00  1200   0.175E+00 0.000E+00
CGA:   2    -0.593674513443E+03   -0.45385E-01   -0.45369E-01  1200   0.319E-01-0.289E-03
CGA:   3    -0.593684170455E+03   -0.96570E-02   -0.96567E-02  1200   0.684E-02-0.156E-04
CGA:   4    -0.593685929388E+03   -0.17589E-02   -0.17605E-02  1200   0.147E-02 0.254E-04
CGA:   5    -0.593686357026E+03   -0.42764E-03   -0.42796E-03  1200   0.352E-03 0.133E-04
CGA:   6    -0.593686481750E+03   -0.12472E-03   -0.12469E-03  1200   0.114E-03 0.833E-06
CGA:   7    -0.593686521686E+03   -0.39935E-04   -0.39840E-04  1200   0.333E-04 0.292E-05
CGA:   8    -0.593686533310E+03   -0.11624E-04   -0.11579E-04  1200   0.741E-05 0.209E-05
CGA:   9    -0.593686536239E+03   -0.29293E-05   -0.29348E-05  1200   0.186E-05-0.983E-07
  43 F= -.59368654E+03 E0= -.59368654E+03  d E =-.411403E-02
       N       E                     dE             d eps       ncg     rms          ort
SDA:   1    -0.593675556781E+03    0.10977E-01    0.00000E+00  1200   0.419E-01 0.000E+00
CGA:   2    -0.593686227193E+03   -0.10670E-01   -0.10662E-01  1200   0.697E-02-0.118E-03
CGA:   3    -0.593688327025E+03   -0.20998E-02   -0.20998E-02  1200   0.146E-02-0.308E-05
CGA:   4    -0.593688701051E+03   -0.37403E-03   -0.37454E-03  1200   0.319E-03 0.799E-05
CGA:   5    -0.593688793176E+03   -0.92126E-04   -0.92265E-04  1200   0.767E-04 0.463E-05
CGA:   6    -0.593688820307E+03   -0.27130E-04   -0.27126E-04  1200   0.251E-04 0.126E-06
CGA:   7    -0.593688828804E+03   -0.84971E-05   -0.84756E-05  1200   0.699E-05 0.117E-05
CGA:   8    -0.593688831157E+03   -0.23526E-05   -0.23501E-05  1200   0.152E-05 0.903E-06
  44 F= -.59368883E+03 E0= -.59368883E+03  d E =-.229492E-02
       N       E                     dE             d eps       ncg     rms          ort
SDA:   1    -0.593574053028E+03    0.11478E+00    0.00000E+00  1200   0.378E+00 0.000E+00
CGA:   2    -0.593669964028E+03   -0.95911E-01   -0.95898E-01  1200   0.626E-01-0.314E-03
CGA:   3    -0.593688897956E+03   -0.18934E-01   -0.18934E-01  1200   0.131E-01-0.162E-04
CGA:   4    -0.593692282261E+03   -0.33843E-02   -0.33858E-02  1200   0.287E-02 0.243E-04
CGA:   5    -0.593693119033E+03   -0.83677E-03   -0.83710E-03  1200   0.700E-03 0.142E-04
CGA:   6    -0.593693363085E+03   -0.24405E-03   -0.24404E-03  1200   0.225E-03 0.375E-06
CGA:   7    -0.593693441290E+03   -0.78205E-04   -0.78089E-04  1200   0.653E-04 0.365E-05
CGA:   8    -0.593693464141E+03   -0.22851E-04   -0.22775E-04  1200   0.146E-04 0.289E-05
CGA:   9    -0.593693469733E+03   -0.55921E-05   -0.55930E-05  1200   0.360E-05-0.183E-07
CGA:  10    -0.593693471129E+03   -0.13954E-05   -0.14167E-05  1200   0.102E-05-0.290E-06
  45 F= -.59369347E+03 E0= -.59369347E+03  d E =-.693489E-02
       N       E                     dE             d eps       ncg     rms          ort
SDA:   1    -0.593213972493E+03    0.47950E+00    0.00000E+00  1200   0.151E+01 0.000E+00
CGA:   2    -0.593597628111E+03   -0.38366E+00   -0.38371E+00  1200   0.251E+00-0.327E-03
CGA:   3    -0.593673543712E+03   -0.75916E-01   -0.75914E-01  1200   0.525E-01-0.466E-04
CGA:   4    -0.593687115239E+03   -0.13572E-01   -0.13576E-01  1200   0.116E-01 0.513E-04
CGA:   5    -0.593690485609E+03   -0.33704E-02   -0.33711E-02  1200   0.283E-02 0.279E-04
CGA:   6    -0.593691465843E+03   -0.98023E-03   -0.98021E-03  1200   0.907E-03 0.101E-05
CGA:   7    -0.593691782818E+03   -0.31698E-03   -0.31676E-03  1200   0.267E-03 0.728E-05
CGA:   8    -0.593691876773E+03   -0.93955E-04   -0.93787E-04  1200   0.605E-04 0.597E-05
CGA:   9    -0.593691899207E+03   -0.22434E-04   -0.22434E-04  1200   0.142E-04 0.408E-08
CGA:  10    -0.593691904619E+03   -0.54113E-05   -0.54491E-05  1200   0.378E-05-0.627E-06
CGA:  11    -0.593691906014E+03   -0.13951E-05   -0.13976E-05  1200   0.983E-06-0.404E-07
  46 F= -.59369191E+03 E0= -.59369191E+03  d E =-.536977E-02
       N       E                     dE             d eps       ncg     rms          ort
SDA:   1    -0.593507940899E+03    0.18396E+00    0.00000E+00  1200   0.593E+00 0.000E+00
CGA:   2    -0.593657880103E+03   -0.14994E+00   -0.14995E+00  1200   0.976E-01 0.398E-03
CGA:   3    -0.593687459003E+03   -0.29579E-01   -0.29579E-01  1200   0.206E-01-0.220E-05
CGA:   4    -0.593692780154E+03   -0.53212E-02   -0.53184E-02  1200   0.454E-02-0.364E-04
CGA:   5    -0.593694104470E+03   -0.13243E-02   -0.13238E-02  1200   0.111E-02-0.163E-04
CGA:   6    -0.593694484647E+03   -0.38018E-03   -0.38017E-03  1200   0.350E-03 0.207E-06
CGA:   7    -0.593694609679E+03   -0.12503E-03   -0.12521E-03  1200   0.107E-03-0.493E-05
CGA:   8    -0.593694647967E+03   -0.38288E-04   -0.38439E-04  1200   0.258E-04-0.375E-05
CGA:   9    -0.593694656596E+03   -0.86286E-05   -0.86227E-05  1200   0.533E-05 0.286E-06
CGA:  10    -0.593694658456E+03   -0.18601E-05   -0.18529E-05  1200   0.121E-05 0.410E-06
  47 F= -.59369466E+03 E0= -.59369466E+03  d E =-.812222E-02
       N       E                     dE             d eps       ncg     rms          ort
SDA:   1    -0.593633528626E+03    0.61128E-01    0.00000E+00  1200   0.198E+00 0.000E+00
CGA:   2    -0.593684645206E+03   -0.51117E-01   -0.51109E-01  1200   0.370E-01-0.149E-03
CGA:   3    -0.593695759943E+03   -0.11115E-01   -0.11115E-01  1200   0.783E-02 0.599E-05
CGA:   4    -0.593697737086E+03   -0.19771E-02   -0.19782E-02  1200   0.159E-02 0.135E-04
CGA:   5    -0.593698194338E+03   -0.45725E-03   -0.45751E-03  1200   0.358E-03 0.747E-05
CGA:   6    -0.593698315816E+03   -0.12148E-03   -0.12148E-03  1200   0.112E-03-0.281E-06
CGA:   7    -0.593698355140E+03   -0.39324E-04   -0.39271E-04  1200   0.334E-04 0.185E-05
CGA:   8    -0.593698367122E+03   -0.11982E-04   -0.11936E-04  1200   0.776E-05 0.157E-05
CGA:   9    -0.593698370117E+03   -0.29949E-05   -0.29974E-05  1200   0.192E-05-0.439E-07
  48 F= -.59369837E+03 E0= -.59369837E+03  d E =-.371166E-02
       N       E                     dE             d eps       ncg     rms          ort
SDA:   1    -0.593681868082E+03    0.16499E-01    0.00000E+00  1200   0.521E-01 0.000E+00
CGA:   2    -0.593695315884E+03   -0.13448E-01   -0.13442E-01  1200   0.974E-02-0.861E-04
CGA:   3    -0.593698235327E+03   -0.29194E-02   -0.29195E-02  1200   0.207E-02 0.452E-05
CGA:   4    -0.593698754598E+03   -0.51927E-03   -0.51980E-03  1200   0.420E-03 0.710E-05
CGA:   5    -0.593698874599E+03   -0.12000E-03   -0.12013E-03  1200   0.941E-04 0.376E-05
CGA:   6    -0.593698906771E+03   -0.32173E-04   -0.32176E-04  1200   0.300E-04-0.164E-06
CGA:   7    -0.593698917108E+03   -0.10337E-04   -0.10313E-04  1200   0.869E-05 0.972E-06
CGA:   8    -0.593698920175E+03   -0.30670E-05   -0.30516E-05  1200   0.198E-05 0.799E-06
  49 F= -.59369892E+03 E0= -.59369892E+03  d E =-.426172E-02
       N       E                     dE             d eps       ncg     rms          ort
SDA:   1    -0.593661728438E+03    0.37189E-01    0.00000E+00  1200   0.125E+00 0.000E+00
CGA:   2    -0.593693570891E+03   -0.31842E-01   -0.31837E-01  1200   0.229E-01-0.930E-04
CGA:   3    -0.593700478604E+03   -0.69077E-02   -0.69079E-02  1200   0.478E-02 0.846E-05
CGA:   4    -0.593701700911E+03   -0.12223E-02   -0.12229E-02  1200   0.989E-03 0.895E-05
CGA:   5    -0.593701989329E+03   -0.28842E-03   -0.28854E-03  1200   0.234E-03 0.482E-05
CGA:   6    -0.593702069066E+03   -0.79737E-04   -0.79732E-04  1200   0.747E-04 0.205E-06
CGA:   7    -0.593702095067E+03   -0.26000E-04   -0.25959E-04  1200   0.217E-04 0.139E-05
CGA:   8    -0.593702102826E+03   -0.77593E-05   -0.77322E-05  1200   0.509E-05 0.859E-06
CGA:   9    -0.593702104778E+03   -0.19523E-05   -0.19570E-05  1200   0.127E-05-0.974E-07
  50 F= -.59370210E+03 E0= -.59370210E+03  d E =-.318460E-02
       N       E                     dE             d eps       ncg     rms          ort
SDA:   1    -0.593683117296E+03    0.18986E-01    0.00000E+00  1200   0.610E-01 0.000E+00
CGA:   2    -0.593698688863E+03   -0.15572E-01   -0.15567E-01  1200   0.112E-01-0.701E-04
CGA:   3    -0.593702064287E+03   -0.33754E-02   -0.33756E-02  1200   0.234E-02 0.681E-05
CGA:   4    -0.593702661554E+03   -0.59727E-03   -0.59770E-03  1200   0.487E-03 0.638E-05
CGA:   5    -0.593702802741E+03   -0.14119E-03   -0.14128E-03  1200   0.115E-03 0.333E-05
CGA:   6    -0.593702841843E+03   -0.39102E-04   -0.39099E-04  1200   0.368E-04 0.136E-06
CGA:   7    -0.593702854555E+03   -0.12712E-04   -0.12685E-04  1200   0.105E-04 0.990E-06
CGA:   8    -0.593702858318E+03   -0.37624E-05   -0.37457E-05  1200   0.246E-05 0.610E-06
  51 F= -.59370286E+03 E0= -.59370286E+03  d E =-.393814E-02
       N       E                     dE             d eps       ncg     rms          ort
SDA:   1    -0.593690889145E+03    0.11965E-01    0.00000E+00  1200   0.448E-01 0.000E+00
CGA:   2    -0.593702362611E+03   -0.11473E-01   -0.11467E-01  1200   0.773E-02-0.102E-03
CGA:   3    -0.593704709385E+03   -0.23468E-02   -0.23467E-02  1200   0.153E-02-0.157E-05
CGA:   4    -0.593705107059E+03   -0.39767E-03   -0.39820E-03  1200   0.319E-03 0.890E-05
CGA:   5    -0.593705200173E+03   -0.93113E-04   -0.93207E-04  1200   0.781E-04 0.376E-05
CGA:   6    -0.593705227640E+03   -0.27468E-04   -0.27459E-04  1200   0.257E-04 0.278E-06
CGA:   7    -0.593705236422E+03   -0.87821E-05   -0.87551E-05  1200   0.698E-05 0.114E-05
CGA:   8    -0.593705238845E+03   -0.24228E-05   -0.24129E-05  1200   0.155E-05 0.719E-06
  52 F= -.59370524E+03 E0= -.59370524E+03  d E =-.238053E-02
       N       E                     dE             d eps       ncg     rms          ort
SDA:   1    -0.593580318231E+03    0.12492E+00    0.00000E+00  1200   0.404E+00 0.000E+00
CGA:   2    -0.593683451710E+03   -0.10313E+00   -0.10312E+00  1200   0.694E-01-0.249E-03
CGA:   3    -0.593704600294E+03   -0.21149E-01   -0.21149E-01  1200   0.138E-01-0.506E-05
CGA:   4    -0.593708198920E+03   -0.35986E-02   -0.36002E-02  1200   0.291E-02 0.272E-04
CGA:   5    -0.593709047296E+03   -0.84838E-03   -0.84864E-03  1200   0.715E-03 0.115E-04
CGA:   6    -0.593709295339E+03   -0.24804E-03   -0.24802E-03  1200   0.232E-03 0.850E-06
CGA:   7    -0.593709376648E+03   -0.81309E-04   -0.81184E-04  1200   0.657E-04 0.357E-05
CGA:   8    -0.593709399877E+03   -0.23229E-04   -0.23158E-04  1200   0.149E-04 0.231E-05
CGA:   9    -0.593709405475E+03   -0.55980E-05   -0.56024E-05  1200   0.363E-05-0.899E-07
CGA:  10    -0.593709406879E+03   -0.14044E-05   -0.14230E-05  1200   0.103E-05-0.250E-06
  53 F= -.59370941E+03 E0= -.59370941E+03  d E =-.654856E-02
       N       E                     dE             d eps       ncg     rms          ort
SDA:   1    -0.593683125592E+03    0.26280E-01    0.00000E+00  1200   0.818E-01 0.000E+00
CGA:   2    -0.593705361656E+03   -0.22236E-01   -0.22230E-01  1200   0.178E-01-0.125E-03
CGA:   3    -0.593710645958E+03   -0.52843E-02   -0.52843E-02  1200   0.355E-02 0.157E-05
CGA:   4    -0.593711540445E+03   -0.89449E-03   -0.89554E-03  1200   0.672E-03 0.150E-04
CGA:   5    -0.593711732854E+03   -0.19241E-03   -0.19257E-03  1200   0.151E-03 0.504E-05
CGA:   6    -0.593711783737E+03   -0.50884E-04   -0.50888E-04  1200   0.475E-04-0.215E-06
CGA:   7    -0.593711800454E+03   -0.16717E-04   -0.16671E-04  1200   0.139E-04 0.136E-05
CGA:   8    -0.593711805490E+03   -0.50357E-05   -0.50040E-05  1200   0.338E-05 0.103E-05
CGA:   9    -0.593711806841E+03   -0.13512E-05   -0.13522E-05  1200   0.895E-06-0.264E-07
  54 F= -.59371181E+03 E0= -.59371181E+03  d E =-.239996E-02
       N       E                     dE             d eps       ncg     rms          ort
SDA:   1    -0.593709712848E+03    0.20926E-02    0.00000E+00  1200   0.630E-02 0.000E+00
CGA:   2    -0.593711432896E+03   -0.17200E-02   -0.17181E-02  1200   0.138E-02-0.367E-04
CGA:   3    -0.593711839424E+03   -0.40653E-03   -0.40655E-03  1200   0.274E-03 0.885E-06
CGA:   4    -0.593711907377E+03   -0.67953E-04   -0.68261E-04  1200   0.512E-04 0.419E-05
CGA:   5    -0.593711921907E+03   -0.14530E-04   -0.14583E-04  1200   0.114E-04 0.139E-05
CGA:   6    -0.593711925898E+03   -0.39908E-05   -0.39917E-05  1200   0.378E-05-0.453E-07
CGA:   7    -0.593711927128E+03   -0.12307E-05   -0.12278E-05  1200   0.101E-05 0.363E-06
CGA:   8    -0.593711927456E+03   -0.32769E-06   -0.33260E-06  1200   0.257E-06 0.257E-06
  55 F= -.59371193E+03 E0= -.59371193E+03  d E =-.252058E-02
       N       E                     dE             d eps       ncg     rms          ort
SDA:   1    -0.593696636472E+03    0.15291E-01    0.00000E+00  1200   0.519E-01 0.000E+00
CGA:   2    -0.593710227298E+03   -0.13591E-01   -0.13586E-01  1200   0.962E-02-0.934E-04
CGA:   3    -0.593713120131E+03   -0.28928E-02   -0.28928E-02  1200   0.186E-02-0.180E-05
CGA:   4    -0.593713608723E+03   -0.48859E-03   -0.48907E-03  1200   0.381E-03 0.911E-05
CGA:   5    -0.593713718691E+03   -0.10997E-03   -0.11005E-03  1200   0.922E-04 0.316E-05
CGA:   6    -0.593713750643E+03   -0.31952E-04   -0.31947E-04  1200   0.298E-04 0.151E-06
CGA:   7    -0.593713760972E+03   -0.10328E-04   -0.10293E-04  1200   0.832E-05 0.115E-05
CGA:   8    -0.593713763919E+03   -0.29468E-05   -0.29302E-05  1200   0.190E-05 0.688E-06
  56 F= -.59371376E+03 E0= -.59371376E+03  d E =-.183646E-02
       N       E                     dE             d eps       ncg     rms          ort
SDA:   1    -0.593628430234E+03    0.85331E-01    0.00000E+00  1200   0.264E+00 0.000E+00
CGA:   2    -0.593697425197E+03   -0.68995E-01   -0.68986E-01  1200   0.488E-01-0.188E-03
CGA:   3    -0.593712136434E+03   -0.14711E-01   -0.14711E-01  1200   0.942E-02-0.598E-05
CGA:   4    -0.593714626989E+03   -0.24906E-02   -0.24916E-02  1200   0.194E-02 0.203E-04
CGA:   5    -0.593715187587E+03   -0.56060E-03   -0.56077E-03  1200   0.472E-03 0.706E-05
CGA:   6    -0.593715350035E+03   -0.16245E-03   -0.16244E-03  1200   0.152E-03 0.319E-06
CGA:   7    -0.593715403554E+03   -0.53519E-04   -0.53417E-04  1200   0.436E-04 0.270E-05
CGA:   8    -0.593715419159E+03   -0.15604E-04   -0.15549E-04  1200   0.101E-04 0.161E-05
CGA:   9    -0.593715423006E+03   -0.38469E-05   -0.38512E-05  1200   0.244E-05-0.976E-07
  57 F= -.59371542E+03 E0= -.59371542E+03  d E =-.349555E-02
       N       E                     dE             d eps       ncg     rms          ort
SDA:   1    -0.593689907824E+03    0.25511E-01    0.00000E+00  1200   0.771E-01 0.000E+00
CGA:   2    -0.593711508110E+03   -0.21600E-01   -0.21599E-01  1200   0.171E-01-0.338E-04
CGA:   3    -0.593716550470E+03   -0.50424E-02   -0.50424E-02  1200   0.313E-02 0.284E-05
CGA:   4    -0.593717358660E+03   -0.80819E-03   -0.80837E-03  1200   0.617E-03 0.292E-05
CGA:   5    -0.593717530204E+03   -0.17154E-03   -0.17155E-03  1200   0.139E-03 0.215E-06
CGA:   6    -0.593717576873E+03   -0.46669E-04   -0.46667E-04  1200   0.428E-04 0.791E-07
CGA:   7    -0.593717592303E+03   -0.15430E-04   -0.15404E-04  1200   0.131E-04 0.591E-06
CGA:   8    -0.593717597118E+03   -0.48148E-05   -0.48039E-05  1200   0.323E-05 0.246E-06
  58 F= -.59371760E+03 E0= -.59371760E+03  d E =-.217411E-02
       N       E                     dE             d eps       ncg     rms          ort
SDA:   1    -0.593717127585E+03    0.46472E-03    0.00000E+00  1200   0.140E-02 0.000E+00
CGA:   2    -0.593717520905E+03   -0.39332E-03   -0.39311E-03  1200   0.312E-03-0.507E-05
CGA:   3    -0.593717612257E+03   -0.91352E-04   -0.91365E-04  1200   0.557E-04 0.532E-06
CGA:   4    -0.593717626787E+03   -0.14530E-04   -0.14556E-04  1200   0.104E-04 0.446E-06
CGA:   5    -0.593717629809E+03   -0.30220E-05   -0.30224E-05  1200   0.251E-05 0.126E-07
CGA:   6    -0.593717630669E+03   -0.86014E-06   -0.85992E-06  1200   0.803E-06 0.860E-08
CGA:   7    -0.593717630937E+03   -0.26867E-06   -0.26726E-06  1200   0.222E-06 0.753E-07
CGA:   8    -0.593717631020E+03   -0.82754E-07   -0.82201E-07  1200   0.555E-07 0.311E-07
  59 F= -.59371763E+03 E0= -.59371763E+03  d E =-.220801E-02
       N       E                     dE             d eps       ncg     rms          ort
SDA:   1    -0.593702553911E+03    0.15077E-01    0.00000E+00  1200   0.490E-01 0.000E+00
CGA:   2    -0.593716110541E+03   -0.13557E-01   -0.13558E-01  1200   0.104E-01 0.297E-04
CGA:   3    -0.593719107237E+03   -0.29967E-02   -0.29968E-02  1200   0.196E-02 0.496E-05
CGA:   4    -0.593719631597E+03   -0.52436E-03   -0.52413E-03  1200   0.391E-03-0.456E-05
CGA:   5    -0.593719740601E+03   -0.10900E-03   -0.10899E-03  1200   0.894E-04-0.334E-06
CGA:   6    -0.593719770433E+03   -0.29832E-04   -0.29839E-04  1200   0.271E-04-0.386E-06
CGA:   7    -0.593719780190E+03   -0.97570E-05   -0.97686E-05  1200   0.848E-05-0.255E-06
CGA:   8    -0.593719783275E+03   -0.30857E-05   -0.30936E-05  1200   0.218E-05-0.155E-06
  60 F= -.59371978E+03 E0= -.59371978E+03  d E =-.215226E-02
       N       E                     dE             d eps       ncg     rms          ort
SDA:   1    -0.593706690069E+03    0.13090E-01    0.00000E+00  1200   0.390E-01 0.000E+00
CGA:   2    -0.593717476504E+03   -0.10786E-01   -0.10788E-01  1200   0.827E-02 0.259E-04
CGA:   3    -0.593719859397E+03   -0.23829E-02   -0.23830E-02  1200   0.155E-02 0.472E-05
CGA:   4    -0.593720276087E+03   -0.41669E-03   -0.41649E-03  1200   0.309E-03-0.399E-05
CGA:   5    -0.593720362340E+03   -0.86253E-04   -0.86242E-04  1200   0.711E-04-0.303E-06
CGA:   6    -0.593720386115E+03   -0.23775E-04   -0.23783E-04  1200   0.217E-04-0.356E-06
CGA:   7    -0.593720393918E+03   -0.78030E-05   -0.78135E-05  1200   0.680E-05-0.219E-06
CGA:   8    -0.593720396393E+03   -0.24751E-05   -0.24822E-05  1200   0.175E-05-0.137E-06
  61 F= -.59372040E+03 E0= -.59372040E+03  d E =-.276537E-02
       N       E                     dE             d eps       ncg     rms          ort
SDA:   1    -0.593710263867E+03    0.10130E-01    0.00000E+00  1200   0.339E-01 0.000E+00
CGA:   2    -0.593719745681E+03   -0.94818E-02   -0.94825E-02  1200   0.711E-02 0.160E-04
CGA:   3    -0.593721779865E+03   -0.20342E-02   -0.20342E-02  1200   0.133E-02 0.369E-06
CGA:   4    -0.593722137067E+03   -0.35720E-03   -0.35711E-03  1200   0.267E-03-0.192E-05
CGA:   5    -0.593722211119E+03   -0.74052E-04   -0.74045E-04  1200   0.615E-04-0.187E-06
CGA:   6    -0.593722231917E+03   -0.20798E-04   -0.20804E-04  1200   0.186E-04-0.222E-06
CGA:   7    -0.593722238643E+03   -0.67263E-05   -0.67345E-05  1200   0.591E-05-0.162E-06
CGA:   8    -0.593722240752E+03   -0.21087E-05   -0.21097E-05  1200   0.145E-05-0.147E-07
  62 F= -.59372224E+03 E0= -.59372224E+03  d E =-.184436E-02
       N       E                     dE             d eps       ncg     rms          ort
SDA:   1    -0.593669221987E+03    0.53017E-01    0.00000E+00  1200   0.155E+00 0.000E+00
CGA:   2    -0.593712443496E+03   -0.43222E-01   -0.43223E-01  1200   0.324E-01 0.406E-04
CGA:   3    -0.593721714815E+03   -0.92713E-02   -0.92713E-02  1200   0.605E-02-0.353E-06
CGA:   4    -0.593723340453E+03   -0.16256E-02   -0.16254E-02  1200   0.122E-02-0.422E-05
CGA:   5    -0.593723678471E+03   -0.33802E-03   -0.33800E-03  1200   0.280E-03-0.339E-06
CGA:   6    -0.593723773149E+03   -0.94678E-04   -0.94689E-04  1200   0.843E-04-0.434E-06
CGA:   7    -0.593723803680E+03   -0.30531E-04   -0.30546E-04  1200   0.267E-04-0.315E-06
CGA:   8    -0.593723813270E+03   -0.95902E-05   -0.95910E-05  1200   0.657E-05-0.114E-07
CGA:   9    -0.593723815604E+03   -0.23339E-05   -0.23311E-05  1200   0.140E-05 0.829E-07
  63 F= -.59372382E+03 E0= -.59372382E+03  d E =-.341921E-02
       N       E                     dE             d eps       ncg     rms          ort
SDA:   1    -0.593711817567E+03    0.11996E-01    0.00000E+00  1200   0.396E-01 0.000E+00
CGA:   2    -0.593722948373E+03   -0.11131E-01   -0.11130E-01  1200   0.802E-02-0.158E-04
CGA:   3    -0.593725216502E+03   -0.22681E-02   -0.22680E-02  1200   0.153E-02-0.444E-05
CGA:   4    -0.593725627640E+03   -0.41114E-03   -0.41122E-03  1200   0.320E-03 0.164E-05
CGA:   5    -0.593725716303E+03   -0.88663E-04   -0.88662E-04  1200   0.763E-04-0.867E-08
CGA:   6    -0.593725742348E+03   -0.26045E-04   -0.26047E-04  1200   0.231E-04-0.829E-07
CGA:   7    -0.593725750609E+03   -0.82618E-05   -0.82540E-05  1200   0.702E-05 0.182E-06
CGA:   8    -0.593725753109E+03   -0.24993E-05   -0.24939E-05  1200   0.168E-05 0.165E-06
  64 F= -.59372575E+03 E0= -.59372575E+03  d E =-.193750E-02
       N       E                     dE             d eps       ncg     rms          ort
SDA:   1    -0.593679800731E+03    0.45950E-01    0.00000E+00  1200   0.135E+00 0.000E+00
CGA:   2    -0.593717629078E+03   -0.37828E-01   -0.37827E-01  1200   0.272E-01-0.286E-04
CGA:   3    -0.593725339446E+03   -0.77104E-02   -0.77101E-02  1200   0.517E-02-0.861E-05
CGA:   4    -0.593726737086E+03   -0.13976E-02   -0.13978E-02  1200   0.108E-02 0.288E-05
CGA:   5    -0.593727037744E+03   -0.30066E-03   -0.30066E-03  1200   0.259E-03 0.188E-07
CGA:   6    -0.593727126049E+03   -0.88305E-04   -0.88309E-04  1200   0.780E-04-0.113E-06
CGA:   7    -0.593727154124E+03   -0.28075E-04   -0.28060E-04  1200   0.239E-04 0.338E-06
CGA:   8    -0.593727162655E+03   -0.85311E-05   -0.85190E-05  1200   0.575E-05 0.322E-06
CGA:   9    -0.593727164729E+03   -0.20743E-05   -0.20712E-05  1200   0.125E-05 0.927E-07
  65 F= -.59372716E+03 E0= -.59372716E+03  d E =-.334913E-02
       N       E                     dE             d eps       ncg     rms          ort
SDA:   1    -0.593715342540E+03    0.11820E-01    0.00000E+00  1200   0.379E-01 0.000E+00
CGA:   2    -0.593726146704E+03   -0.10804E-01   -0.10803E-01  1200   0.788E-02-0.361E-04
CGA:   3    -0.593728352146E+03   -0.22054E-02   -0.22051E-02  1200   0.151E-02-0.712E-05
CGA:   4    -0.593728757703E+03   -0.40556E-03   -0.40576E-03  1200   0.310E-03 0.399E-05
CGA:   5    -0.593728842763E+03   -0.85060E-04   -0.85092E-04  1200   0.725E-04 0.738E-06
CGA:   6    -0.593728867175E+03   -0.24412E-04   -0.24421E-04  1200   0.217E-04-0.398E-06
CGA:   7    -0.593728874807E+03   -0.76324E-05   -0.76229E-05  1200   0.656E-05 0.262E-06
CGA:   8    -0.593728877081E+03   -0.22732E-05   -0.22638E-05  1200   0.154E-05 0.404E-06
  66 F= -.59372888E+03 E0= -.59372888E+03  d E =-.171235E-02
       N       E                     dE             d eps       ncg     rms          ort
SDA:   1    -0.593707838962E+03    0.21036E-01    0.00000E+00  1200   0.611E-01 0.000E+00
CGA:   2    -0.593725256785E+03   -0.17418E-01   -0.17416E-01  1200   0.127E-01-0.467E-04
CGA:   3    -0.593728813158E+03   -0.35564E-02   -0.35560E-02  1200   0.243E-02-0.920E-05
CGA:   4    -0.593729467494E+03   -0.65434E-03   -0.65458E-03  1200   0.495E-03 0.508E-05
CGA:   5    -0.593729604254E+03   -0.13676E-03   -0.13680E-03  1200   0.117E-03 0.916E-06
CGA:   6    -0.593729643506E+03   -0.39252E-04   -0.39263E-04  1200   0.348E-04-0.523E-06
CGA:   7    -0.593729655807E+03   -0.12301E-04   -0.12288E-04  1200   0.106E-04 0.341E-06
CGA:   8    -0.593729659501E+03   -0.36941E-05   -0.36795E-05  1200   0.251E-05 0.522E-06
  67 F= -.59372966E+03 E0= -.59372966E+03  d E =-.249477E-02
       N       E                     dE             d eps       ncg     rms          ort
SDA:   1    -0.593709384019E+03    0.20272E-01    0.00000E+00  1200   0.592E-01 0.000E+00
CGA:   2    -0.593726622067E+03   -0.17238E-01   -0.17238E-01  1200   0.129E-01-0.698E-05
CGA:   3    -0.593730242261E+03   -0.36202E-02   -0.36198E-02  1200   0.250E-02-0.101E-04
CGA:   4    -0.593730892832E+03   -0.65057E-03   -0.65059E-03  1200   0.513E-03 0.487E-06
CGA:   5    -0.593731034089E+03   -0.14126E-03   -0.14129E-03  1200   0.117E-03 0.736E-06
CGA:   6    -0.593731073613E+03   -0.39524E-04   -0.39535E-04  1200   0.355E-04-0.442E-06
CGA:   7    -0.593731086448E+03   -0.12835E-04   -0.12846E-04  1200   0.112E-04-0.219E-06
CGA:   8    -0.593731090406E+03   -0.39580E-05   -0.39459E-05  1200   0.266E-05 0.313E-06
  68 F= -.59373109E+03 E0= -.59373109E+03  d E =-.143090E-02
       N       E                     dE             d eps       ncg     rms          ort
SDA:   1    -0.593729888192E+03    0.11983E-02    0.00000E+00  1200   0.343E-02 0.000E+00
CGA:   2    -0.593730887276E+03   -0.99908E-03   -0.99905E-03  1200   0.748E-03-0.126E-05
CGA:   3    -0.593731097162E+03   -0.20989E-03   -0.20980E-03  1200   0.144E-03-0.224E-05
CGA:   4    -0.593731134733E+03   -0.37571E-04   -0.37581E-04  1200   0.289E-04 0.187E-06
CGA:   5    -0.593731142756E+03   -0.80230E-05   -0.80293E-05  1200   0.672E-05 0.167E-06
CGA:   6    -0.593731145093E+03   -0.23362E-05   -0.23400E-05  1200   0.215E-05-0.118E-06
CGA:   7    -0.593731145864E+03   -0.77134E-06   -0.77386E-06  1200   0.687E-06-0.483E-07
CGA:   8    -0.593731146081E+03   -0.21713E-06   -0.21647E-06  1200   0.146E-06 0.695E-07
  69 F= -.59373115E+03 E0= -.59373115E+03  d E =-.148658E-02
       N       E                     dE             d eps       ncg     rms          ort
SDA:   1    -0.593720000672E+03    0.11145E-01    0.00000E+00  1200   0.355E-01 0.000E+00
CGA:   2    -0.593730164192E+03   -0.10164E-01   -0.10165E-01  1200   0.691E-02 0.524E-04
CGA:   3    -0.593732152071E+03   -0.19879E-02   -0.19877E-02  1200   0.136E-02-0.689E-05
CGA:   4    -0.593732509681E+03   -0.35761E-03   -0.35735E-03  1200   0.295E-03-0.528E-05
CGA:   5    -0.593732591177E+03   -0.81496E-04   -0.81500E-04  1200   0.694E-04 0.113E-06
CGA:   6    -0.593732614775E+03   -0.23597E-04   -0.23599E-04  1200   0.211E-04-0.794E-07
CGA:   7    -0.593732622661E+03   -0.78858E-05   -0.79437E-05  1200   0.698E-05-0.890E-06
CGA:   8    -0.593732625021E+03   -0.23607E-05   -0.23660E-05  1200   0.167E-05-0.137E-06
  70 F= -.59373263E+03 E0= -.59373263E+03  d E =-.147894E-02
       N       E                     dE             d eps       ncg     rms          ort
SDA:   1    -0.593663522294E+03    0.69100E-01    0.00000E+00  1200   0.198E+00 0.000E+00
CGA:   2    -0.593720330785E+03   -0.56808E-01   -0.56811E-01  1200   0.386E-01 0.115E-03
CGA:   3    -0.593731424793E+03   -0.11094E-01   -0.11094E-01  1200   0.755E-02-0.178E-04
CGA:   4    -0.593733414621E+03   -0.19898E-02   -0.19892E-02  1200   0.164E-02-0.129E-04
CGA:   5    -0.593733869167E+03   -0.45455E-03   -0.45456E-03  1200   0.388E-03 0.368E-06
CGA:   6    -0.593734000876E+03   -0.13171E-03   -0.13171E-03  1200   0.118E-03-0.119E-06
CGA:   7    -0.593734044111E+03   -0.43235E-04   -0.43351E-04  1200   0.372E-04-0.204E-05
CGA:   8    -0.593734057135E+03   -0.13024E-04   -0.13038E-04  1200   0.908E-05-0.322E-06
CGA:   9    -0.593734060196E+03   -0.30603E-05   -0.30524E-05  1200   0.187E-05 0.332E-06
  71 F= -.59373406E+03 E0= -.59373406E+03  d E =-.291411E-02
       N       E                     dE             d eps       ncg     rms          ort
SDA:   1    -0.593704406617E+03    0.29651E-01    0.00000E+00  1200   0.846E-01 0.000E+00
CGA:   2    -0.593728945900E+03   -0.24539E-01   -0.24541E-01  1200   0.177E-01 0.589E-04
CGA:   3    -0.593734063483E+03   -0.51176E-02   -0.51172E-02  1200   0.341E-02-0.117E-04
CGA:   4    -0.593734952407E+03   -0.88892E-03   -0.88862E-03  1200   0.693E-03-0.546E-05
CGA:   5    -0.593735145633E+03   -0.19323E-03   -0.19325E-03  1200   0.153E-03 0.728E-06
CGA:   6    -0.593735197571E+03   -0.51938E-04   -0.51954E-04  1200   0.460E-04-0.637E-06
CGA:   7    -0.593735214709E+03   -0.17138E-04   -0.17204E-04  1200   0.148E-04-0.107E-05
CGA:   8    -0.593735219938E+03   -0.52290E-05   -0.52274E-05  1200   0.364E-05 0.405E-07
CGA:   9    -0.593735221192E+03   -0.12536E-05   -0.12500E-05  1200   0.769E-06 0.139E-06
  72 F= -.59373522E+03 E0= -.59373522E+03  d E =-.116100E-02
       N       E                     dE             d eps       ncg     rms          ort
SDA:   1    -0.593735067112E+03    0.15283E-03    0.00000E+00  1200   0.438E-03 0.000E+00
CGA:   2    -0.593735192860E+03   -0.12575E-03   -0.12590E-03  1200   0.898E-04 0.416E-05
CGA:   3    -0.593735219491E+03   -0.26631E-04   -0.26610E-04  1200   0.181E-04-0.694E-06
CGA:   4    -0.593735224182E+03   -0.46911E-05   -0.46700E-05  1200   0.386E-05-0.343E-06
CGA:   5    -0.593735225186E+03   -0.10048E-05   -0.10069E-05  1200   0.811E-06 0.402E-07
CGA:   6    -0.593735225480E+03   -0.29356E-06   -0.29548E-06  1200   0.280E-06-0.443E-07
CGA:   7    -0.593735225594E+03   -0.11351E-06   -0.13205E-06  1200   0.186E-06-0.107E-06
CGA:   8    -0.593735225624E+03   -0.30708E-07   -0.30884E-07  1200   0.516E-07 0.286E-08
  73 F= -.59373523E+03 E0= -.59373523E+03  d E =-.116543E-02
       N       E                     dE             d eps       ncg     rms          ort
SDA:   1    -0.593717316049E+03    0.17910E-01    0.00000E+00  1200   0.553E-01 0.000E+00
CGA:   2    -0.593732824372E+03   -0.15508E-01   -0.15509E-01  1200   0.106E-01 0.336E-04
CGA:   3    -0.593735867198E+03   -0.30428E-02   -0.30425E-02  1200   0.218E-02-0.117E-04
CGA:   4    -0.593736426300E+03   -0.55910E-03   -0.55897E-03  1200   0.457E-03-0.233E-05
CGA:   5    -0.593736557622E+03   -0.13132E-03   -0.13133E-03  1200   0.106E-03 0.292E-06
CGA:   6    -0.593736594113E+03   -0.36491E-04   -0.36504E-04  1200   0.324E-04-0.378E-06
CGA:   7    -0.593736606110E+03   -0.11997E-04   -0.12041E-04  1200   0.993E-05-0.728E-06
CGA:   8    -0.593736609590E+03   -0.34799E-05   -0.34768E-05  1200   0.238E-05 0.770E-07
  74 F= -.59373661E+03 E0= -.59373661E+03  d E =-.138397E-02
       N       E                     dE             d eps       ncg     rms          ort
SDA:   1    -0.593709142317E+03    0.27464E-01    0.00000E+00  1200   0.805E-01 0.000E+00
CGA:   2    -0.593731690793E+03   -0.22548E-01   -0.22550E-01  1200   0.153E-01 0.401E-04
CGA:   3    -0.593736112356E+03   -0.44216E-02   -0.44212E-02  1200   0.316E-02-0.140E-04
CGA:   4    -0.593736924812E+03   -0.81246E-03   -0.81229E-03  1200   0.661E-03-0.279E-05
CGA:   5    -0.593737115118E+03   -0.19031E-03   -0.19031E-03  1200   0.155E-03 0.362E-06
CGA:   6    -0.593737168288E+03   -0.53170E-04   -0.53185E-04  1200   0.474E-04-0.450E-06
CGA:   7    -0.593737185782E+03   -0.17494E-04   -0.17546E-04  1200   0.144E-04-0.871E-06
CGA:   8    -0.593737190880E+03   -0.50974E-05   -0.50925E-05  1200   0.349E-05 0.968E-07
CGA:   9    -0.593737192085E+03   -0.12056E-05   -0.12024E-05  1200   0.758E-06 0.133E-06
  75 F= -.59373719E+03 E0= -.59373719E+03  d E =-.196646E-02
       N       E                     dE             d eps       ncg     rms          ort
SDA:   1    -0.593712339765E+03    0.24851E-01    0.00000E+00  1200   0.747E-01 0.000E+00
CGA:   2    -0.593733386248E+03   -0.21046E-01   -0.21048E-01  1200   0.141E-01 0.431E-04
CGA:   3    -0.593737435194E+03   -0.40489E-02   -0.40485E-02  1200   0.296E-02-0.141E-04
CGA:   4    -0.593738187178E+03   -0.75198E-03   -0.75181E-03  1200   0.613E-03-0.235E-05
CGA:   5    -0.593738364816E+03   -0.17764E-03   -0.17763E-03  1200   0.142E-03-0.244E-06
CGA:   6    -0.593738413351E+03   -0.48535E-04   -0.48534E-04  1200   0.441E-04 0.798E-07
CGA:   7    -0.593738429567E+03   -0.16216E-04   -0.16253E-04  1200   0.135E-04-0.711E-06
CGA:   8    -0.593738434393E+03   -0.48268E-05   -0.48286E-05  1200   0.323E-05-0.445E-07
  76 F= -.59373843E+03 E0= -.59373843E+03  d E =-.124231E-02
       N       E                     dE             d eps       ncg     rms          ort
SDA:   1    -0.593733874210E+03    0.45554E-02    0.00000E+00  1200   0.134E-01 0.000E+00
CGA:   2    -0.593737648395E+03   -0.37742E-02   -0.37749E-02  1200   0.252E-02 0.185E-04
CGA:   3    -0.593738375572E+03   -0.72718E-03   -0.72699E-03  1200   0.528E-03-0.569E-05
CGA:   4    -0.593738510358E+03   -0.13479E-03   -0.13473E-03  1200   0.108E-03-0.875E-06
CGA:   5    -0.593738541917E+03   -0.31559E-04   -0.31556E-04  1200   0.256E-04-0.141E-06
CGA:   6    -0.593738550652E+03   -0.87353E-05   -0.87348E-05  1200   0.799E-05 0.171E-07
CGA:   7    -0.593738553645E+03   -0.29925E-05   -0.30109E-05  1200   0.255E-05-0.305E-06
CGA:   8    -0.593738554524E+03   -0.87944E-06   -0.87954E-06  1200   0.588E-06-0.996E-08
  77 F= -.59373855E+03 E0= -.59373855E+03  d E =-.136244E-02
       N       E                     dE             d eps       ncg     rms          ort
SDA:   1    -0.593714348434E+03    0.24205E-01    0.00000E+00  1200   0.734E-01 0.000E+00
CGA:   2    -0.593734952855E+03   -0.20604E-01   -0.20607E-01  1200   0.134E-01 0.676E-04
CGA:   3    -0.593738937968E+03   -0.39851E-02   -0.39848E-02  1200   0.275E-02-0.135E-04
CGA:   4    -0.593739642432E+03   -0.70446E-03   -0.70420E-03  1200   0.592E-03-0.410E-05
CGA:   5    -0.593739814024E+03   -0.17159E-03   -0.17157E-03  1200   0.139E-03-0.846E-06
CGA:   6    -0.593739862551E+03   -0.48527E-04   -0.48548E-04  1200   0.437E-04-0.579E-06
CGA:   7    -0.593739878528E+03   -0.15977E-04   -0.16026E-04  1200   0.133E-04-0.924E-06
CGA:   8    -0.593739883212E+03   -0.46840E-05   -0.46868E-05  1200   0.307E-05-0.689E-07
  78 F= -.59373988E+03 E0= -.59373988E+03  d E =-.132869E-02
       N       E                     dE             d eps       ncg     rms          ort
SDA:   1    -0.593714382160E+03    0.25496E-01    0.00000E+00  1200   0.745E-01 0.000E+00
CGA:   2    -0.593735313748E+03   -0.20932E-01   -0.20934E-01  1200   0.136E-01 0.678E-04
CGA:   3    -0.593739361953E+03   -0.40482E-02   -0.40479E-02  1200   0.279E-02-0.133E-04
CGA:   4    -0.593740077277E+03   -0.71532E-03   -0.71506E-03  1200   0.599E-03-0.407E-05
CGA:   5    -0.593740251029E+03   -0.17375E-03   -0.17373E-03  1200   0.141E-03-0.872E-06
CGA:   6    -0.593740300370E+03   -0.49340E-04   -0.49361E-04  1200   0.446E-04-0.577E-06
CGA:   7    -0.593740316654E+03   -0.16285E-04   -0.16333E-04  1200   0.136E-04-0.918E-06
CGA:   8    -0.593740321430E+03   -0.47754E-05   -0.47780E-05  1200   0.312E-05-0.637E-07
  79 F= -.59374032E+03 E0= -.59374032E+03  d E =-.176691E-02
       N       E                     dE             d eps       ncg     rms          ort
SDA:   1    -0.593720683149E+03    0.19634E-01    0.00000E+00  1200   0.618E-01 0.000E+00
CGA:   2    -0.593737722759E+03   -0.17040E-01   -0.17043E-01  1200   0.108E-01 0.856E-04
CGA:   3    -0.593740916804E+03   -0.31940E-02   -0.31938E-02  1200   0.222E-02-0.111E-04
CGA:   4    -0.593741477690E+03   -0.56089E-03   -0.56050E-03  1200   0.480E-03-0.578E-05
CGA:   5    -0.593741617365E+03   -0.13967E-03   -0.13963E-03  1200   0.114E-03-0.204E-05
CGA:   6    -0.593741656818E+03   -0.39454E-04   -0.39476E-04  1200   0.357E-04-0.644E-06
CGA:   7    -0.593741669802E+03   -0.12984E-04   -0.13040E-04  1200   0.109E-04-0.108E-05
CGA:   8    -0.593741673636E+03   -0.38341E-05   -0.38471E-05  1200   0.250E-05-0.279E-06
  80 F= -.59374167E+03 E0= -.59374167E+03  d E =-.135221E-02
       N       E                     dE             d eps       ncg     rms          ort
SDA:   1    -0.593607179450E+03    0.13449E+00    0.00000E+00  1200   0.400E+00 0.000E+00
CGA:   2    -0.593717518644E+03   -0.11034E+00   -0.11035E+00  1200   0.698E-01 0.199E-03
CGA:   3    -0.593738177891E+03   -0.20659E-01   -0.20659E-01  1200   0.144E-01-0.266E-04
CGA:   4    -0.593741805398E+03   -0.36275E-02   -0.36263E-02  1200   0.311E-02-0.164E-04
CGA:   5    -0.593742709898E+03   -0.90450E-03   -0.90439E-03  1200   0.731E-03-0.494E-05
CGA:   6    -0.593742964110E+03   -0.25421E-03   -0.25426E-03  1200   0.229E-03-0.149E-05
CGA:   7    -0.593743046543E+03   -0.82433E-04   -0.82559E-04  1200   0.676E-04-0.272E-05
CGA:   8    -0.593743070881E+03   -0.24338E-04   -0.24373E-04  1200   0.156E-04-0.728E-06
CGA:   9    -0.593743076331E+03   -0.54501E-05   -0.54410E-05  1200   0.339E-05 0.284E-06
CGA:  10    -0.593743077642E+03   -0.13108E-05   -0.13121E-05  1200   0.856E-06-0.346E-07
  81 F= -.59374308E+03 E0= -.59374308E+03  d E =-.275621E-02
       N       E                     dE             d eps       ncg     rms          ort
SDA:   1    -0.593730915859E+03    0.12160E-01    0.00000E+00  1200   0.387E-01 0.000E+00
CGA:   2    -0.593741576698E+03   -0.10661E-01   -0.10664E-01  1200   0.690E-02 0.663E-04
CGA:   3    -0.593743614132E+03   -0.20374E-02   -0.20372E-02  1200   0.145E-02-0.702E-05
CGA:   4    -0.593743980555E+03   -0.36642E-03   -0.36613E-03  1200   0.305E-03-0.402E-05
CGA:   5    -0.593744070259E+03   -0.89705E-04   -0.89661E-04  1200   0.706E-04-0.170E-05
CGA:   6    -0.593744094665E+03   -0.24406E-04   -0.24413E-04  1200   0.220E-04-0.246E-06
CGA:   7    -0.593744102696E+03   -0.80305E-05   -0.80646E-05  1200   0.681E-05-0.729E-06
CGA:   8    -0.593744105116E+03   -0.24196E-05   -0.24313E-05  1200   0.160E-05-0.257E-06
  82 F= -.59374411E+03 E0= -.59374411E+03  d E =-.102747E-02
       N       E                     dE             d eps       ncg     rms          ort
SDA:   1    -0.593651327059E+03    0.92776E-01    0.00000E+00  1200   0.276E+00 0.000E+00
CGA:   2    -0.593727261140E+03   -0.75934E-01   -0.75941E-01  1200   0.492E-01 0.172E-03
CGA:   3    -0.593741746295E+03   -0.14485E-01   -0.14485E-01  1200   0.103E-01-0.189E-04
CGA:   4    -0.593744345537E+03   -0.25992E-02   -0.25983E-02  1200   0.215E-02-0.119E-04
CGA:   5    -0.593744979224E+03   -0.63369E-03   -0.63358E-03  1200   0.501E-03-0.437E-05
CGA:   6    -0.593745152593E+03   -0.17337E-03   -0.17338E-03  1200   0.156E-03-0.529E-06
CGA:   7    -0.593745208734E+03   -0.56142E-04   -0.56221E-04  1200   0.466E-04-0.192E-05
CGA:   8    -0.593745225562E+03   -0.16827E-04   -0.16858E-04  1200   0.109E-04-0.683E-06
CGA:   9    -0.593745229343E+03   -0.37818E-05   -0.37759E-05  1200   0.234E-05 0.229E-06
  83 F= -.59374523E+03 E0= -.59374523E+03  d E =-.215170E-02
       N       E                     dE             d eps       ncg     rms          ort
SDA:   1    -0.593732115468E+03    0.13110E-01    0.00000E+00  1200   0.420E-01 0.000E+00
CGA:   2    -0.593743623597E+03   -0.11508E-01   -0.11511E-01  1200   0.748E-02 0.509E-04
CGA:   3    -0.593745861157E+03   -0.22376E-02   -0.22374E-02  1200   0.153E-02-0.561E-05
CGA:   4    -0.593746252630E+03   -0.39147E-03   -0.39128E-03  1200   0.325E-03-0.272E-05
CGA:   5    -0.593746347948E+03   -0.95318E-04   -0.95281E-04  1200   0.760E-04-0.142E-05
CGA:   6    -0.593746374539E+03   -0.26590E-04   -0.26598E-04  1200   0.236E-04-0.216E-06
CGA:   7    -0.593746383141E+03   -0.86023E-05   -0.86282E-05  1200   0.723E-05-0.555E-06
CGA:   8    -0.593746385691E+03   -0.25504E-05   -0.25562E-05  1200   0.169E-05-0.142E-06
  84 F= -.59374639E+03 E0= -.59374639E+03  d E =-.115635E-02
       N       E                     dE             d eps       ncg     rms          ort
SDA:   1    -0.593619815311E+03    0.12657E+00    0.00000E+00  1200   0.378E+00 0.000E+00
CGA:   2    -0.593723588791E+03   -0.10377E+00   -0.10378E+00  1200   0.675E-01 0.149E-03
CGA:   3    -0.593743744039E+03   -0.20155E-01   -0.20155E-01  1200   0.138E-01-0.166E-04
CGA:   4    -0.593747272093E+03   -0.35281E-02   -0.35273E-02  1200   0.291E-02-0.967E-05
[...]
SDA:   1    -0.593786291030E+03    0.16333E-02    0.00000E+00  1200   0.433E-02 0.000E+00
CGA:   2    -0.593787629997E+03   -0.13390E-02   -0.13390E-02  1200   0.111E-02-0.403E-06
CGA:   3    -0.593787922442E+03   -0.29245E-03   -0.29242E-03  1200   0.190E-03-0.441E-06
CGA:   4    -0.593787970393E+03   -0.47951E-04   -0.47957E-04  1200   0.366E-04 0.964E-07
CGA:   5    -0.593787980668E+03   -0.10275E-04   -0.10277E-04  1200   0.781E-05 0.694E-07
CGA:   6    -0.593787983306E+03   -0.26383E-05   -0.26373E-05  1200   0.221E-05 0.396E-07
CGA:   7    -0.593787984137E+03   -0.83041E-06   -0.83006E-06  1200   0.693E-06 0.718E-08
CGA:   8    -0.593787984388E+03   -0.25180E-06   -0.25178E-06  1200   0.172E-06 0.670E-08
 213 F= -.59378798E+03 E0= -.59378798E+03  d E =-.597487E-04
       N       E                     dE             d eps       ncg     rms          ort
SDA:   1    -0.593782929497E+03    0.50546E-02    0.00000E+00  1200   0.130E-01 0.000E+00
CGA:   2    -0.593786958104E+03   -0.40286E-02   -0.40286E-02  1200   0.333E-02-0.727E-06
CGA:   3    -0.593787838076E+03   -0.87997E-03   -0.87993E-03  1200   0.571E-03-0.809E-06
CGA:   4    -0.593787982490E+03   -0.14441E-03   -0.14442E-03  1200   0.111E-03 0.153E-06
CGA:   5    -0.593788013491E+03   -0.31002E-04   -0.31006E-04  1200   0.235E-04 0.119E-06
CGA:   6    -0.593788021432E+03   -0.79402E-05   -0.79386E-05  1200   0.664E-05 0.730E-07
CGA:   7    -0.593788023925E+03   -0.24930E-05   -0.24926E-05  1200   0.208E-05 0.121E-07
CGA:   8    -0.593788024680E+03   -0.75535E-06   -0.75492E-06  1200   0.516E-06 0.147E-07
 214 F= -.59378802E+03 E0= -.59378802E+03  d E =-.100040E-03
       N       E                     dE             d eps       ncg     rms          ort
SDA:   1    -0.593787134456E+03    0.88947E-03    0.00000E+00  1200   0.240E-02 0.000E+00
CGA:   2    -0.593787875755E+03   -0.74130E-03   -0.74128E-03  1200   0.609E-03-0.128E-05
CGA:   3    -0.593788037817E+03   -0.16206E-03   -0.16204E-03  1200   0.103E-03-0.489E-06
CGA:   4    -0.593788064044E+03   -0.26226E-04   -0.26232E-04  1200   0.199E-04 0.985E-07
CGA:   5    -0.593788069618E+03   -0.55743E-05   -0.55754E-05  1200   0.429E-05 0.314E-07
CGA:   6    -0.593788071077E+03   -0.14587E-05   -0.14590E-05  1200   0.122E-05 0.130E-07
CGA:   7    -0.593788071543E+03   -0.46598E-06   -0.46615E-06  1200   0.390E-06-0.688E-08
CGA:   8    -0.593788071683E+03   -0.14000E-06   -0.13953E-06  1200   0.942E-07 0.508E-08
 215 F= -.59378807E+03 E0= -.59378807E+03  d E =-.470026E-04
       N       E                     dE             d eps       ncg     rms          ort
SDA:   1    -0.593779710085E+03    0.83615E-02    0.00000E+00  1200   0.216E-01 0.000E+00
CGA:   2    -0.593786375726E+03   -0.66656E-02   -0.66656E-02  1200   0.547E-02-0.375E-05
CGA:   3    -0.593787831588E+03   -0.14559E-02   -0.14558E-02  1200   0.928E-03-0.157E-05
CGA:   4    -0.593788067607E+03   -0.23602E-03   -0.23603E-03  1200   0.181E-03 0.259E-06
CGA:   5    -0.593788118118E+03   -0.50511E-04   -0.50515E-04  1200   0.385E-04 0.968E-07
CGA:   6    -0.593788131169E+03   -0.13051E-04   -0.13049E-04  1200   0.109E-04 0.554E-07
CGA:   7    -0.593788135278E+03   -0.41096E-05   -0.41103E-05  1200   0.341E-05-0.143E-07
CGA:   8    -0.593788136519E+03   -0.12407E-05   -0.12400E-05  1200   0.841E-06 0.128E-07
 216 F= -.59378814E+03 E0= -.59378814E+03  d E =-.111839E-03
       N       E                     dE             d eps       ncg     rms          ort
SDA:   1    -0.593787416910E+03    0.71837E-03    0.00000E+00  1200   0.199E-02 0.000E+00
CGA:   2    -0.593788024309E+03   -0.60740E-03   -0.60741E-03  1200   0.498E-03 0.757E-06
CGA:   3    -0.593788158118E+03   -0.13381E-03   -0.13378E-03  1200   0.856E-04-0.525E-06
CGA:   4    -0.593788179902E+03   -0.21784E-04   -0.21769E-04  1200   0.164E-04-0.239E-06
CGA:   5    -0.593788184518E+03   -0.46158E-05   -0.46140E-05  1200   0.354E-05-0.511E-07
CGA:   6    -0.593788185708E+03   -0.11904E-05   -0.11899E-05  1200   0.994E-06 0.197E-07
CGA:   7    -0.593788186095E+03   -0.38647E-06   -0.38884E-06  1200   0.336E-06-0.325E-07
CGA:   8    -0.593788186213E+03   -0.11877E-06   -0.11928E-06  1200   0.838E-07-0.953E-08
 217 F= -.59378819E+03 E0= -.59378819E+03  d E =-.496945E-04
       N       E                     dE             d eps       ncg     rms          ort
SDA:   1    -0.593781331621E+03    0.68545E-02    0.00000E+00  1200   0.179E-01 0.000E+00
CGA:   2    -0.593786796804E+03   -0.54652E-02   -0.54652E-02  1200   0.448E-02 0.234E-05
CGA:   3    -0.593787998306E+03   -0.12015E-02   -0.12014E-02  1200   0.771E-03-0.167E-05
CGA:   4    -0.593788193734E+03   -0.19543E-03   -0.19538E-03  1200   0.149E-03-0.745E-06
CGA:   5    -0.593788235549E+03   -0.41815E-04   -0.41811E-04  1200   0.315E-04-0.153E-06
CGA:   6    -0.593788246179E+03   -0.10630E-04   -0.10629E-04  1200   0.881E-05 0.647E-07
CGA:   7    -0.593788249520E+03   -0.33410E-05   -0.33468E-05  1200   0.281E-05-0.912E-07
CGA:   8    -0.593788250538E+03   -0.10178E-05   -0.10195E-05  1200   0.705E-06-0.306E-07
 218 F= -.59378825E+03 E0= -.59378825E+03  d E =-.114019E-03
       N       E                     dE             d eps       ncg     rms          ort
SDA:   1    -0.593787932911E+03    0.31661E-03    0.00000E+00  1200   0.915E-03 0.000E+00
CGA:   2    -0.593788210046E+03   -0.27713E-03   -0.27716E-03  1200   0.226E-03 0.143E-05
CGA:   3    -0.593788271174E+03   -0.61128E-04   -0.61111E-04  1200   0.390E-04-0.336E-06
CGA:   4    -0.593788281159E+03   -0.99854E-05   -0.99720E-05  1200   0.757E-05-0.221E-06
CGA:   5    -0.593788283287E+03   -0.21276E-05   -0.21272E-05  1200   0.166E-05-0.234E-07
CGA:   6    -0.593788283845E+03   -0.55804E-06   -0.55750E-06  1200   0.466E-06 0.273E-07
CGA:   7    -0.593788284034E+03   -0.18873E-06   -0.19201E-06  1200   0.172E-06-0.305E-07
CGA:   8    -0.593788284092E+03   -0.58408E-07   -0.58571E-07  1200   0.418E-07-0.826E-08
 219 F= -.59378828E+03 E0= -.59378828E+03  d E =-.335539E-04
       N       E                     dE             d eps       ncg     rms          ort
SDA:   1    -0.593785208883E+03    0.30752E-02    0.00000E+00  1200   0.822E-02 0.000E+00
CGA:   2    -0.593787703249E+03   -0.24944E-02   -0.24944E-02  1200   0.203E-02 0.445E-05
CGA:   3    -0.593788251622E+03   -0.54837E-03   -0.54832E-03  1200   0.351E-03-0.111E-05
CGA:   4    -0.593788340963E+03   -0.89342E-04   -0.89299E-04  1200   0.688E-04-0.677E-06
CGA:   5    -0.593788360283E+03   -0.19320E-04   -0.19317E-04  1200   0.147E-04-0.710E-07
CGA:   6    -0.593788365272E+03   -0.49895E-05   -0.49869E-05  1200   0.414E-05 0.909E-07
CGA:   7    -0.593788366868E+03   -0.15958E-05   -0.16020E-05  1200   0.136E-05-0.837E-07
CGA:   8    -0.593788367353E+03   -0.48438E-06   -0.48561E-06  1200   0.335E-06-0.263E-07
 220 F= -.59378837E+03 E0= -.59378837E+03  d E =-.116815E-03
       N       E                     dE             d eps       ncg     rms          ort
SDA:   1    -0.593775819157E+03    0.12548E-01    0.00000E+00  1200   0.329E-01 0.000E+00
CGA:   2    -0.593785799333E+03   -0.99802E-02   -0.99803E-02  1200   0.814E-02 0.918E-05
CGA:   3    -0.593787992262E+03   -0.21929E-02   -0.21928E-02  1200   0.140E-02-0.238E-05
CGA:   4    -0.593788349317E+03   -0.35706E-03   -0.35697E-03  1200   0.275E-03-0.139E-05
CGA:   5    -0.593788426568E+03   -0.77251E-04   -0.77246E-04  1200   0.591E-04-0.147E-06
CGA:   6    -0.593788446636E+03   -0.20068E-04   -0.20063E-04  1200   0.167E-04 0.193E-06
CGA:   7    -0.593788452996E+03   -0.63606E-05   -0.63712E-05  1200   0.535E-05-0.161E-06
CGA:   8    -0.593788454923E+03   -0.19271E-05   -0.19298E-05  1200   0.132E-05-0.517E-07
 221 F= -.59378845E+03 E0= -.59378845E+03  d E =-.204385E-03
       N       E                     dE             d eps       ncg     rms          ort
SDA:   1    -0.593786789643E+03    0.16634E-02    0.00000E+00  1200   0.435E-02 0.000E+00
CGA:   2    -0.593788109898E+03   -0.13203E-02   -0.13203E-02  1200   0.108E-02 0.319E-05
CGA:   3    -0.593788400474E+03   -0.29058E-03   -0.29054E-03  1200   0.185E-03-0.763E-06
CGA:   4    -0.593788447808E+03   -0.47334E-04   -0.47304E-04  1200   0.361E-04-0.490E-06
CGA:   5    -0.593788457955E+03   -0.10147E-04   -0.10145E-04  1200   0.787E-05-0.550E-07
CGA:   6    -0.593788460616E+03   -0.26616E-05   -0.26596E-05  1200   0.223E-05 0.654E-07
CGA:   7    -0.593788461484E+03   -0.86766E-06   -0.87264E-06  1200   0.749E-06-0.628E-07
CGA:   8    -0.593788461749E+03   -0.26485E-06   -0.26603E-06  1200   0.184E-06-0.186E-07
 222 F= -.59378846E+03 E0= -.59378846E+03  d E =-.211211E-03
       N       E                     dE             d eps       ncg     rms          ort
SDA:   1    -0.593787240988E+03    0.12205E-02    0.00000E+00  1200   0.331E-02 0.000E+00
CGA:   2    -0.593788238921E+03   -0.99793E-03   -0.99801E-03  1200   0.833E-03 0.385E-05
CGA:   3    -0.593788467495E+03   -0.22857E-03   -0.22854E-03  1200   0.143E-03-0.800E-06
CGA:   4    -0.593788504404E+03   -0.36909E-04   -0.36881E-04  1200   0.290E-04-0.468E-06
CGA:   5    -0.593788512486E+03   -0.80822E-05   -0.80840E-05  1200   0.636E-05 0.527E-07
CGA:   6    -0.593788514646E+03   -0.21599E-05   -0.21573E-05  1200   0.181E-05 0.108E-06
CGA:   7    -0.593788515366E+03   -0.72006E-06   -0.72518E-06  1200   0.631E-06-0.619E-07
CGA:   8    -0.593788515589E+03   -0.22258E-06   -0.22398E-06  1200   0.157E-06-0.271E-07
 223 F= -.59378852E+03 E0= -.59378852E+03  d E =-.538396E-04
       N       E                     dE             d eps       ncg     rms          ort
SDA:   1    -0.593785408194E+03    0.31072E-02    0.00000E+00  1200   0.816E-02 0.000E+00
CGA:   2    -0.593787866280E+03   -0.24581E-02   -0.24582E-02  1200   0.205E-02 0.612E-05
CGA:   3    -0.593788428803E+03   -0.56252E-03   -0.56246E-03  1200   0.353E-03-0.128E-05
CGA:   4    -0.593788519542E+03   -0.90739E-04   -0.90695E-04  1200   0.713E-04-0.739E-06
CGA:   5    -0.593788539484E+03   -0.19942E-04   -0.19945E-04  1200   0.157E-04 0.835E-07
CGA:   6    -0.593788544824E+03   -0.53399E-05   -0.53353E-05  1200   0.449E-05 0.174E-06
CGA:   7    -0.593788546575E+03   -0.17508E-05   -0.17576E-05  1200   0.151E-05-0.937E-07
CGA:   8    -0.593788547113E+03   -0.53803E-06   -0.53977E-06  1200   0.373E-06-0.431E-07
 224 F= -.59378855E+03 E0= -.59378855E+03  d E =-.853637E-04
       N       E                     dE             d eps       ncg     rms          ort
SDA:   1    -0.593787600083E+03    0.94649E-03    0.00000E+00  1200   0.261E-02 0.000E+00
CGA:   2    -0.593788372868E+03   -0.77278E-03   -0.77287E-03  1200   0.654E-03 0.378E-05
CGA:   3    -0.593788552664E+03   -0.17980E-03   -0.17974E-03  1200   0.115E-03-0.128E-05
CGA:   4    -0.593788582100E+03   -0.29436E-04   -0.29406E-04  1200   0.230E-04-0.487E-06
CGA:   5    -0.593788588511E+03   -0.64115E-05   -0.64097E-05  1200   0.504E-05-0.499E-07
CGA:   6    -0.593788590196E+03   -0.16850E-05   -0.16830E-05  1200   0.143E-05 0.731E-07
CGA:   7    -0.593788590754E+03   -0.55746E-06   -0.56121E-06  1200   0.498E-06-0.474E-07
CGA:   8    -0.593788590934E+03   -0.18025E-06   -0.18201E-06  1200   0.132E-06-0.330E-07
 225 F= -.59378859E+03 E0= -.59378859E+03  d E =-.438210E-04
       N       E                     dE             d eps       ncg     rms          ort
SDA:   1    -0.593787719857E+03    0.87090E-03    0.00000E+00  1200   0.233E-02 0.000E+00
CGA:   2    -0.593788409318E+03   -0.68946E-03   -0.68954E-03  1200   0.583E-03 0.359E-05
CGA:   3    -0.593788569717E+03   -0.16040E-03   -0.16035E-03  1200   0.103E-03-0.122E-05
CGA:   4    -0.593788595975E+03   -0.26259E-04   -0.26230E-04  1200   0.206E-04-0.461E-06
CGA:   5    -0.593788601705E+03   -0.57301E-05   -0.57285E-05  1200   0.449E-05-0.468E-07
CGA:   6    -0.593788603203E+03   -0.14974E-05   -0.14960E-05  1200   0.126E-05 0.687E-07
CGA:   7    -0.593788603699E+03   -0.49611E-06   -0.49987E-06  1200   0.444E-06-0.466E-07
CGA:   8    -0.593788603859E+03   -0.15999E-06   -0.16222E-06  1200   0.118E-06-0.316E-07
 226 F= -.59378860E+03 E0= -.59378860E+03  d E =-.567462E-04
       N       E                     dE             d eps       ncg     rms          ort
SDA:   1    -0.593787537453E+03    0.10662E-02    0.00000E+00  1200   0.302E-02 0.000E+00
CGA:   2    -0.593788417278E+03   -0.87982E-03   -0.87997E-03  1200   0.716E-03 0.533E-05
CGA:   3    -0.593788615254E+03   -0.19798E-03   -0.19791E-03  1200   0.127E-03-0.172E-05
CGA:   4    -0.593788647813E+03   -0.32560E-04   -0.32511E-04  1200   0.256E-04-0.838E-06
CGA:   5    -0.593788654943E+03   -0.71294E-05   -0.71226E-05  1200   0.567E-05-0.216E-06
CGA:   6    -0.593788656834E+03   -0.18909E-05   -0.18905E-05  1200   0.160E-05 0.183E-07
CGA:   7    -0.593788657462E+03   -0.62789E-06   -0.63569E-06  1200   0.570E-06-0.944E-07
CGA:   8    -0.593788657660E+03   -0.19882E-06   -0.20105E-06  1200   0.145E-06-0.418E-07
 227 F= -.59378866E+03 E0= -.59378866E+03  d E =-.538014E-04
       N       E                     dE             d eps       ncg     rms          ort
SDA:   1    -0.593783487509E+03    0.51700E-02    0.00000E+00  1200   0.141E-01 0.000E+00
CGA:   2    -0.593787586519E+03   -0.40990E-02   -0.40993E-02  1200   0.334E-02 0.114E-04
CGA:   3    -0.593788506559E+03   -0.92004E-03   -0.91989E-03  1200   0.590E-03-0.378E-05
CGA:   4    -0.593788657489E+03   -0.15093E-03   -0.15082E-03  1200   0.118E-03-0.183E-05
CGA:   5    -0.593788690547E+03   -0.33057E-04   -0.33042E-04  1200   0.261E-04-0.464E-06
CGA:   6    -0.593788699350E+03   -0.88030E-05   -0.88016E-05  1200   0.746E-05 0.500E-07
CGA:   7    -0.593788702200E+03   -0.28506E-05   -0.28649E-05  1200   0.248E-05-0.201E-06
CGA:   8    -0.593788703089E+03   -0.88822E-06   -0.89281E-06  1200   0.620E-06-0.903E-07
 228 F= -.59378870E+03 E0= -.59378870E+03  d E =-.992296E-04
       N       E                     dE             d eps       ncg     rms          ort
SDA:   1    -0.593786942416E+03    0.17598E-02    0.00000E+00  1200   0.488E-02 0.000E+00
CGA:   2    -0.593788359436E+03   -0.14170E-02   -0.14174E-02  1200   0.117E-02 0.151E-04
CGA:   3    -0.593788685134E+03   -0.32570E-03   -0.32565E-03  1200   0.206E-03-0.135E-05
CGA:   4    -0.593788738525E+03   -0.53390E-04   -0.53275E-04  1200   0.417E-04-0.207E-05
CGA:   5    -0.593788750144E+03   -0.11620E-04   -0.11610E-04  1200   0.918E-05-0.321E-06
CGA:   6    -0.593788753179E+03   -0.30343E-05   -0.30307E-05  1200   0.254E-05 0.192E-06
CGA:   7    -0.593788754213E+03   -0.10338E-05   -0.10516E-05  1200   0.976E-06-0.190E-06
CGA:   8    -0.593788754554E+03   -0.34141E-06   -0.34917E-06  1200   0.271E-06-0.119E-06
 229 F= -.59378875E+03 E0= -.59378875E+03  d E =-.514654E-04
       N       E                     dE             d eps       ncg     rms          ort
SDA:   1    -0.593788206180E+03    0.54803E-03    0.00000E+00  1200   0.150E-02 0.000E+00
CGA:   2    -0.593788640234E+03   -0.43405E-03   -0.43430E-03  1200   0.357E-03 0.834E-05
CGA:   3    -0.593788740342E+03   -0.10011E-03   -0.10008E-03  1200   0.632E-04-0.717E-06
CGA:   4    -0.593788756871E+03   -0.16529E-04   -0.16467E-04  1200   0.130E-04-0.114E-05
CGA:   5    -0.593788760458E+03   -0.35874E-05   -0.35818E-05  1200   0.284E-05-0.177E-06
CGA:   6    -0.593788761372E+03   -0.91413E-06   -0.91228E-06  1200   0.758E-06 0.108E-06
CGA:   7    -0.593788761700E+03   -0.32792E-06   -0.34073E-06  1200   0.344E-06-0.107E-06
CGA:   8    -0.593788761813E+03   -0.11299E-06   -0.11862E-06  1200   0.106E-06-0.697E-07
 230 F= -.59378876E+03 E0= -.59378876E+03  d E =-.587245E-04
       N       E                     dE             d eps       ncg     rms          ort
SDA:   1    -0.593787393101E+03    0.13686E-02    0.00000E+00  1200   0.386E-02 0.000E+00
CGA:   2    -0.593788497216E+03   -0.11041E-02   -0.11046E-02  1200   0.914E-03 0.153E-04
CGA:   3    -0.593788753985E+03   -0.25677E-03   -0.25673E-03  1200   0.163E-03-0.113E-05
CGA:   4    -0.593788796216E+03   -0.42231E-04   -0.42117E-04  1200   0.337E-04-0.200E-05
CGA:   5    -0.593788805536E+03   -0.93193E-05   -0.93072E-05  1200   0.737E-05-0.360E-06
CGA:   6    -0.593788807921E+03   -0.23850E-05   -0.23821E-05  1200   0.200E-05 0.201E-06
CGA:   7    -0.593788808741E+03   -0.82020E-06   -0.83589E-06  1200   0.784E-06-0.164E-06
CGA:   8    -0.593788809019E+03   -0.27831E-06   -0.29001E-06  1200   0.237E-06-0.131E-06
 231 F= -.59378881E+03 E0= -.59378881E+03  d E =-.472061E-04
       N       E                     dE             d eps       ncg     rms          ort
SDA:   1    -0.593788289290E+03    0.51945E-03    0.00000E+00  1200   0.144E-02 0.000E+00
CGA:   2    -0.593788700209E+03   -0.41092E-03   -0.41123E-03  1200   0.340E-03 0.930E-05
CGA:   3    -0.593788796117E+03   -0.95908E-04   -0.95884E-04  1200   0.609E-04-0.662E-06
CGA:   4    -0.593788812003E+03   -0.15886E-04   -0.15819E-04  1200   0.127E-04-0.122E-05
CGA:   5    -0.593788815493E+03   -0.34897E-05   -0.34821E-05  1200   0.279E-05-0.216E-06
CGA:   6    -0.593788816370E+03   -0.87700E-06   -0.87566E-06  1200   0.733E-06 0.122E-06
CGA:   7    -0.593788816687E+03   -0.31661E-06   -0.32773E-06  1200   0.330E-06-0.978E-07
CGA:   8    -0.593788816799E+03   -0.11196E-06   -0.12096E-06  1200   0.115E-06-0.841E-07
 232 F= -.59378882E+03 E0= -.59378882E+03  d E =-.549854E-04
       N       E                     dE             d eps       ncg     rms          ort
SDA:   1    -0.593788364901E+03    0.45179E-03    0.00000E+00  1200   0.132E-02 0.000E+00
CGA:   2    -0.593788740322E+03   -0.37542E-03   -0.37556E-03  1200   0.310E-03 0.403E-05
CGA:   3    -0.593788827735E+03   -0.87413E-04   -0.87381E-04  1200   0.553E-04-0.875E-06
CGA:   4    -0.593788842071E+03   -0.14336E-04   -0.14293E-04  1200   0.114E-04-0.745E-06
CGA:   5    -0.593788845217E+03   -0.31466E-05   -0.31425E-05  1200   0.251E-05-0.117E-06
CGA:   6    -0.593788846045E+03   -0.82749E-06   -0.82692E-06  1200   0.709E-06 0.232E-07
CGA:   7    -0.593788846337E+03   -0.29204E-06   -0.30226E-06  1200   0.296E-06-0.932E-07
CGA:   8    -0.593788846430E+03   -0.92597E-07   -0.93317E-07  1200   0.708E-07-0.251E-07
 233 F= -.59378885E+03 E0= -.59378885E+03  d E =-.296311E-04
       N       E                     dE             d eps       ncg     rms          ort
SDA:   1    -0.593787902892E+03    0.94345E-03    0.00000E+00  1200   0.263E-02 0.000E+00
CGA:   2    -0.593788650080E+03   -0.74719E-03   -0.74738E-03  1200   0.616E-03 0.575E-05
CGA:   3    -0.593788823673E+03   -0.17359E-03   -0.17355E-03  1200   0.110E-03-0.126E-05
CGA:   4    -0.593788852061E+03   -0.28388E-04   -0.28329E-04  1200   0.225E-04-0.105E-05
CGA:   5    -0.593788858321E+03   -0.62595E-05   -0.62535E-05  1200   0.498E-05-0.170E-06
CGA:   6    -0.593788859978E+03   -0.16571E-05   -0.16557E-05  1200   0.142E-05 0.365E-07
CGA:   7    -0.593788860549E+03   -0.57100E-06   -0.58275E-06  1200   0.541E-06-0.127E-06
CGA:   8    -0.593788860727E+03   -0.17858E-06   -0.18043E-06  1200   0.131E-06-0.363E-07
 234 F= -.59378886E+03 E0= -.59378886E+03  d E =-.439288E-04
       N       E                     dE             d eps       ncg     rms          ort
SDA:   1    -0.593788416612E+03    0.44394E-03    0.00000E+00  1200   0.128E-02 0.000E+00
CGA:   2    -0.593788781232E+03   -0.36462E-03   -0.36467E-03  1200   0.303E-03 0.166E-05
CGA:   3    -0.593788866701E+03   -0.85469E-04   -0.85441E-04  1200   0.531E-04-0.798E-06
CGA:   4    -0.593788880331E+03   -0.13631E-04   -0.13615E-04  1200   0.108E-04-0.254E-06
CGA:   5    -0.593788883332E+03   -0.30009E-05   -0.30001E-05  1200   0.234E-05-0.290E-07
CGA:   6    -0.593788884106E+03   -0.77404E-06   -0.77259E-06  1200   0.654E-06 0.537E-07
CGA:   7    -0.593788884368E+03   -0.26122E-06   -0.26357E-06  1200   0.236E-06-0.302E-07
CGA:   8    -0.593788884450E+03   -0.82156E-07   -0.82713E-07  1200   0.581E-07-0.983E-08
 235 F= -.59378888E+03 E0= -.59378888E+03  d E =-.237223E-04
