
Lmod is automatically replacing "cce/11.0.4" with "gcc/10.2.0".


Lmod is automatically replacing "PrgEnv-cray/8.0.0" with "PrgEnv-gnu/8.0.0".


Lmod is automatically replacing "craype-network-ofi" with "craype-network-ucx".


Inactive Modules:
  1) cray-mpich


Lmod is automatically replacing "craype-network-ucx" with "craype-network-ofi".


Inactive Modules:
  1) cray-mpich-ucx/8.1.9

Activating Modules:
  1) cray-mpich/8.1.4

 ----------------------------------------------------
    OOO  PPPP  EEEEE N   N M   M PPPP
   O   O P   P E     NN  N MM MM P   P
   O   O PPPP  EEEEE N N N M M M PPPP   -- VERSION
   O   O P     E     N  NN M   M P
    OOO  P     EEEEE N   N M   M P
 ----------------------------------------------------
 running   64 mpi-ranks, with    1 threads/rank
 distrk:  each k-point on   32 cores,    2 groups
 distr:  one band on    4 cores,    8 groups
 vasp.6.3.1 04May22 (build May 25 2022 13:42:54) complex                         
 POSCAR found type information on POSCAR C H I N Sn
 POSCAR found :  5 types and      48 ions
 scaLAPACK will be used
 -----------------------------------------------------------------------------
|                                                                             |
|               ----> ADVICE to this user running VASP <----                  |
|                                                                             |
|     You have a (more or less) 'large supercell' and for larger cells it     |
|     might be more efficient to use real-space projection operators.         |
|     Therefore, try LREAL= Auto in the INCAR file.                           |
|     Mind: For very accurate calculation, you might also keep the            |
|     reciprocal projection scheme (i.e. LREAL=.FALSE.).                      |
|                                                                             |
 -----------------------------------------------------------------------------

 WARNING: PSMAXN for non-local potential too small
 LDA part: xc-table for Pade appr. of Perdew
 POSCAR, INCAR and KPOINTS ok, starting setup
 FFT: planning ... GRIDC
 FFT: planning ... GRID_SOFT
 FFT: planning ... GRID
 WAVECAR not read
 entering main loop
       N       E                     dE             d eps       ncg     rms          ort
DAV:   1     0.799866852448E+03    0.79987E+03   -0.92002E+04  1200   0.163E+03
DAV:   2    -0.477083313973E+03   -0.12770E+04   -0.12255E+04  1200   0.256E+02
DAV:   3    -0.639871594794E+03   -0.16279E+03   -0.16134E+03  1200   0.102E+02
DAV:   4    -0.644517955959E+03   -0.46464E+01   -0.46136E+01  1200   0.192E+01
DAV:   5    -0.644659979508E+03   -0.14202E+00   -0.14192E+00  1200   0.313E+00
 gam= 0.000 g(H,U,f)=  0.593E+02 0.927E+01 0.418E+01 ort(H,U,f) = 0.000E+00 0.000E+00 0.000E+00
SDA:   6    -0.579874830388E+03    0.64785E+02   -0.14192E+00  1200   0.728E+02 0.000E+00
 gam= 0.000 trial= 0.400  step= 0.321 mean= 0.400
 gam= 0.063 g(H,U,f)=  0.350E+01 0.106E+01 0.141E-37 ort(H,U,f) = 0.556E+00 0.276E+01 0.000E+00
CGA:   7    -0.591224339497E+03   -0.11350E+02   -0.11669E+02  1200   0.456E+01 0.331E+01
 gam= 0.063 trial= 0.396  step= 0.630 mean= 0.396
 gam= 0.331 g(H,U,f)=  0.126E+01 0.247E+00 0.138E-44 ort(H,U,f) =-0.544E+00 0.559E+00 0.000E+00
CGA:   8    -0.592728201482E+03   -0.15039E+01   -0.15007E+01  1200   0.151E+01 0.153E-01
 gam= 0.331 trial= 0.408  step= 0.605 mean= 0.408
 gam= 0.302 g(H,U,f)=  0.384E+00 0.722E-01 0.784E-14 ort(H,U,f) =-0.216E+00 0.220E+00 0.100E-13
CGA:   9    -0.593186031987E+03   -0.45783E+00   -0.45742E+00  1200   0.456E+00 0.394E-02
 gam= 0.302 trial= 0.418  step= 0.608 mean= 0.418
 gam= 0.272 g(H,U,f)=  0.107E+00 0.168E-01 0.240E-13 ort(H,U,f) =-0.654E-01 0.656E-01 0.502E-13
CGA:  10    -0.593325037674E+03   -0.13901E+00   -0.13897E+00  1200   0.124E+00 0.232E-03
 gam= 0.272 trial= 0.427  step= 0.714 mean= 0.427
 gam= 0.291 g(H,U,f)=  0.338E-01 0.221E-02 0.731E-39 ort(H,U,f) =-0.113E-01 0.110E-01 0.000E+00
CGA:  11    -0.593369270505E+03   -0.44233E-01   -0.44264E-01  1200   0.360E-01-0.247E-03
 gam= 0.291 trial= 0.441  step= 0.633 mean= 0.441
 gam= 0.208 g(H,U,f)=  0.705E-02 0.432E-03 0.217E-15 ort(H,U,f) =-0.183E-02 0.182E-02 0.597E-15
CGA:  12    -0.593380637088E+03   -0.11367E-01   -0.11368E-01  1200   0.748E-02-0.915E-05
 gam= 0.208 trial= 0.451  step= 0.729 mean= 0.451
 gam= 0.250 g(H,U,f)=  0.178E-02 0.911E-04 0.455E-19 ort(H,U,f) =-0.271E-03 0.240E-03 0.125E-18
CGA:  13    -0.593383359835E+03   -0.27227E-02   -0.27272E-02  1200   0.187E-02-0.307E-04
 gam= 0.250 trial= 0.465  step= 0.723 mean= 0.465
 gam= 0.222 g(H,U,f)=  0.392E-03 0.224E-04 0.245E-39 ort(H,U,f) =-0.401E-04 0.413E-04 0.000E+00
CGA:  14    -0.593384033615E+03   -0.67378E-03   -0.67365E-03  1200   0.414E-03 0.121E-05
 gam= 0.222 trial= 0.478  step= 0.748 mean= 0.478
 gam= 0.239 g(H,U,f)=  0.928E-04 0.607E-05 0.305E-15 ort(H,U,f) =-0.380E-05 0.146E-04 0.132E-14
CGA:  15    -0.593384190158E+03   -0.15654E-03   -0.15509E-03  1200   0.989E-04 0.108E-04
 gam= 0.239 trial= 0.491  step= 0.815 mean= 0.491
 gam= 0.261 g(H,U,f)=  0.240E-04 0.186E-05 0.235E-17 ort(H,U,f) =-0.324E-05 0.420E-05 0.139E-16
CGA:  16    -0.593384231665E+03   -0.41507E-04   -0.41350E-04  1200   0.258E-04 0.953E-06
 gam= 0.261 trial= 0.508  step= 0.855 mean= 0.508
 gam= 0.245 g(H,U,f)=  0.608E-05 0.242E-06 0.401E-21 ort(H,U,f) =-0.118E-05 0.697E-06-0.343E-19
CGA:  17    -0.593384242724E+03   -0.11059E-04   -0.11142E-04  1200   0.632E-05-0.482E-06
 gam= 0.245 trial= 0.525  step= 0.746 mean= 0.525
 gam= 0.233 g(H,U,f)=  0.141E-05 0.620E-07 0.594E-19 ort(H,U,f) = 0.639E-06 0.112E-06-0.142E-18
CGA:  18    -0.593384245120E+03   -0.23954E-05   -0.23122E-05  1200   0.147E-05 0.751E-06
 gam= 0.233 trial= 0.536  step= 0.763 mean= 0.536
 final diagonalization
   1 F= -.59338425E+03 E0= -.59338425E+03  d E =-.593384E+03
 curvature:   0.00 expect dE= 0.000E+00 dE for cont linesearch  0.000E+00
 trial: gam= 0.00000 g(F)=  0.320E-01 g(S)=  0.836E-01 ort = 0.000E+00 (trialstep = 0.100E+01)
 search vector abs. value=  0.116E+00
 bond charge predicted
 wavefunctions rotated
       N       E                     dE             d eps       ncg     rms          ort
 gam= 0.000 g(H,U,f)=  0.115E+01 0.341E-01 0.500E-15 ort(H,U,f) = 0.000E+00 0.000E+00 0.000E+00
SDA:   1    -0.593115103084E+03    0.26914E+00    0.00000E+00  1200   0.118E+01 0.000E+00
 gam= 0.000 trial= 0.547  step= 0.445 mean= 0.547
 gam= 0.171 g(H,U,f)=  0.179E+00 0.233E-01 0.571E-13 ort(H,U,f) = 0.618E-02-0.740E-02-0.565E-14
CGA:   2    -0.593378439704E+03   -0.26334E+00   -0.26338E+00  1200   0.202E+00-0.122E-02
 gam= 0.171 trial= 0.542  step= 0.596 mean= 0.542
 gam= 0.221 g(H,U,f)=  0.393E-01 0.539E-02 0.603E-14 ort(H,U,f) =-0.837E-02 0.777E-02 0.523E-14
CGA:   3    -0.593438643815E+03   -0.60204E-01   -0.60221E-01  1200   0.447E-01-0.604E-03
 gam= 0.221 trial= 0.545  step= 0.597 mean= 0.545
 gam= 0.283 g(H,U,f)=  0.105E-01 0.211E-02 0.235E-13 ort(H,U,f) =-0.410E-02 0.436E-02 0.512E-13
CGA:   4    -0.593451951066E+03   -0.13307E-01   -0.13300E-01  1200   0.126E-01 0.260E-03
 gam= 0.283 trial= 0.547  step= 0.568 mean= 0.547
 gam= 0.292 g(H,U,f)=  0.288E-02 0.808E-03-0.686E-56 ort(H,U,f) =-0.176E-02 0.191E-02 0.000E+00
CGA:   5    -0.593455565814E+03   -0.36147E-02   -0.36132E-02  1200   0.369E-02 0.148E-03
 gam= 0.292 trial= 0.549  step= 0.728 mean= 0.549
 gam= 0.291 g(H,U,f)=  0.946E-03 0.127E-03 0.306E-57 ort(H,U,f) =-0.410E-03 0.415E-03 0.000E+00
CGA:   6    -0.593456924723E+03   -0.13589E-02   -0.13585E-02  1200   0.107E-02 0.455E-05
 gam= 0.291 trial= 0.557  step= 0.683 mean= 0.557
 gam= 0.244 g(H,U,f)=  0.239E-03 0.224E-04 0.103E-56 ort(H,U,f) =-0.749E-04 0.889E-04 0.000E+00
CGA:   7    -0.593457291997E+03   -0.36727E-03   -0.36640E-03  1200   0.261E-03 0.140E-04
 gam= 0.244 trial= 0.564  step= 0.645 mean= 0.564
 gam= 0.208 g(H,U,f)=  0.505E-04 0.370E-05-0.189E-29 ort(H,U,f) = 0.214E-05 0.126E-04-0.801E-29
CGA:   8    -0.593457377955E+03   -0.85959E-04   -0.85361E-04  1200   0.542E-04 0.147E-04
 gam= 0.208 trial= 0.568  step= 0.746 mean= 0.568
 gam= 0.271 g(H,U,f)=  0.130E-04 0.166E-05 0.707E-58 ort(H,U,f) =-0.437E-05 0.259E-05 0.000E+00
CGA:   9    -0.593457399159E+03   -0.21204E-04   -0.21362E-04  1200   0.147E-04-0.177E-05
 gam= 0.271 trial= 0.577  step= 0.881 mean= 0.577
 gam= 0.418 g(H,U,f)=  0.568E-05 0.468E-06 0.123E-58 ort(H,U,f) =-0.356E-05 0.167E-07 0.000E+00
CGA:  10    -0.593457404881E+03   -0.57221E-05   -0.62629E-05  1200   0.615E-05-0.355E-05
 gam= 0.418 trial= 0.592  step= 0.658 mean= 0.592
 gam= 0.233 g(H,U,f)=  0.137E-05 0.649E-07 0.348E-59 ort(H,U,f) =-0.113E-06-0.111E-08 0.000E+00
CGA:  11    -0.593457406411E+03   -0.15302E-05   -0.15335E-05  1200   0.143E-05-0.114E-06
 gam= 0.233 trial= 0.595  step= 0.478 mean= 0.595
 final diagonalization
   2 F= -.59345741E+03 E0= -.59345741E+03  d E =-.731613E-01
 trial-energy change:   -0.073161  1 .order   -0.073475   -0.115531   -0.031419
 step:   1.3855(harm=  1.3735)  dis= 0.01658  next Energy=  -593.463445 (dE=-0.792E-01)
 bond charge predicted
 wavefunctions rotated
       N       E                     dE             d eps       ncg     rms          ort
 gam= 0.000 g(H,U,f)=  0.171E+00 0.504E-02 0.147E-15 ort(H,U,f) = 0.000E+00 0.000E+00 0.000E+00
SDA:   1    -0.593412553452E+03    0.44851E-01    0.00000E+00  1200   0.176E+00 0.000E+00
 gam= 0.000 trial= 0.589  step= 0.445 mean= 0.589
 gam= 0.171 g(H,U,f)=  0.266E-01 0.361E-02 0.102E-13 ort(H,U,f) = 0.335E-03-0.104E-02-0.119E-14
CGA:   2    -0.593451766348E+03   -0.39213E-01   -0.39171E-01  1200   0.302E-01-0.707E-03
 gam= 0.171 trial= 0.582  step= 0.597 mean= 0.582
 gam= 0.223 g(H,U,f)=  0.594E-02 0.804E-03 0.517E-14 ort(H,U,f) =-0.140E-02 0.118E-02 0.456E-14
CGA:   3    -0.593460739580E+03   -0.89732E-02   -0.89749E-02  1200   0.674E-02-0.216E-03
 gam= 0.223 trial= 0.583  step= 0.587 mean= 0.583
 gam= 0.276 g(H,U,f)=  0.155E-02 0.316E-03 0.458E-14 ort(H,U,f) =-0.567E-03 0.656E-03 0.991E-14
CGA:   4    -0.593462705592E+03   -0.19660E-02   -0.19658E-02  1200   0.186E-02 0.887E-04
 gam= 0.276 trial= 0.583  step= 0.563 mean= 0.583
 gam= 0.286 g(H,U,f)=  0.410E-03 0.123E-03 0.354E-14 ort(H,U,f) =-0.234E-03 0.287E-03 0.903E-14
CGA:   5    -0.593463236028E+03   -0.53044E-03   -0.53097E-03  1200   0.533E-03 0.530E-04
 gam= 0.286 trial= 0.582  step= 0.733 mean= 0.582
 gam= 0.298 g(H,U,f)=  0.140E-03 0.193E-04 0.490E-62 ort(H,U,f) =-0.600E-04 0.624E-04 0.000E+00
CGA:   6    -0.593463437201E+03   -0.20117E-03   -0.20099E-03  1200   0.159E-03 0.242E-05
 gam= 0.298 trial= 0.590  step= 0.669 mean= 0.590
 gam= 0.239 g(H,U,f)=  0.344E-04 0.358E-05-0.170E-30 ort(H,U,f) =-0.910E-05 0.141E-04-0.587E-30
CGA:   7    -0.593463490755E+03   -0.53554E-04   -0.53356E-04  1200   0.380E-04 0.500E-05
 gam= 0.239 trial= 0.594  step= 0.605 mean= 0.594
 gam= 0.202 g(H,U,f)=  0.699E-05 0.693E-06 0.673E-61 ort(H,U,f) = 0.250E-05 0.242E-05 0.000E+00
CGA:   8    -0.593463502636E+03   -0.11881E-04   -0.11853E-04  1200   0.769E-05 0.492E-05
 gam= 0.202 trial= 0.594  step= 0.774 mean= 0.594
 gam= 0.325 g(H,U,f)=  0.223E-05 0.274E-06 0.197E-61 ort(H,U,f) =-0.842E-06 0.481E-06 0.000E+00
CGA:   9    -0.593463505964E+03   -0.33282E-05   -0.33606E-05  1200   0.250E-05-0.361E-06
 gam= 0.325 trial= 0.603  step= 1.179 mean= 0.603
 final diagonalization
   3 F= -.59346351E+03 E0= -.59346351E+03  d E =-.792608E-01
 curvature:  -0.69 expect dE=-0.990E-01 dE for cont linesearch -0.614E-06
 trial: gam= 1.24629 g(F)=  0.134E+00 g(S)=  0.101E-01 ort = 0.322E-03 (trialstep = 0.383E+00)
 search vector abs. value=  0.325E+00
 bond charge predicted
 wavefunctions rotated
       N       E                     dE             d eps       ncg     rms          ort
 gam= 0.000 g(H,U,f)=  0.698E+00 0.173E-01 0.749E-66 ort(H,U,f) = 0.000E+00 0.000E+00 0.000E+00
SDA:   1    -0.593303642893E+03    0.15986E+00    0.00000E+00  1200   0.716E+00 0.000E+00
 gam= 0.000 trial= 0.632  step= 0.432 mean= 0.632
 gam= 0.186 g(H,U,f)=  0.123E+00 0.978E-02-0.111E-67 ort(H,U,f) = 0.705E-02-0.767E-02 0.000E+00
CGA:   2    -0.593458183055E+03   -0.15454E+00   -0.15459E+00  1200   0.133E+00-0.622E-03
 gam= 0.186 trial= 0.622  step= 0.619 mean= 0.622
 gam= 0.209 g(H,U,f)=  0.262E-01 0.156E-02 0.218E-13 ort(H,U,f) =-0.193E-02 0.171E-02 0.172E-13
CGA:   3    -0.593499364754E+03   -0.41182E-01   -0.41181E-01  1200   0.278E-01-0.220E-03
 gam= 0.209 trial= 0.622  step= 0.538 mean= 0.622
 gam= 0.244 g(H,U,f)=  0.615E-02 0.633E-03-0.130E-29 ort(H,U,f) =-0.994E-03 0.109E-02-0.276E-29
CGA:   4    -0.593506826974E+03   -0.74622E-02   -0.74665E-02  1200   0.678E-02 0.101E-03
 gam= 0.244 trial= 0.618  step= 0.550 mean= 0.618
 gam= 0.233 g(H,U,f)=  0.127E-02 0.310E-03-0.307E-64 ort(H,U,f) =-0.504E-03 0.580E-03 0.000E+00
CGA:   5    -0.593508696620E+03   -0.18696E-02   -0.18722E-02  1200   0.158E-02 0.759E-04
 gam= 0.233 trial= 0.614  step= 0.707 mean= 0.614
 gam= 0.304 g(H,U,f)=  0.416E-03 0.648E-04-0.381E-65 ort(H,U,f) =-0.176E-03 0.177E-03 0.000E+00
CGA:   6    -0.593509261855E+03   -0.56524E-03   -0.56517E-03  1200   0.481E-03 0.156E-05
 gam= 0.304 trial= 0.619  step= 0.743 mean= 0.619
 gam= 0.311 g(H,U,f)=  0.135E-03 0.140E-04-0.179E-30 ort(H,U,f) =-0.498E-04 0.485E-04-0.497E-30
CGA:   7    -0.593509440382E+03   -0.17853E-03   -0.17860E-03  1200   0.149E-03-0.125E-05
 gam= 0.311 trial= 0.625  step= 0.672 mean= 0.625
 gam= 0.223 g(H,U,f)=  0.318E-04 0.144E-05 0.100E-30 ort(H,U,f) =-0.887E-07 0.771E-05 0.441E-30
CGA:   8    -0.593509490631E+03   -0.50250E-04   -0.50071E-04  1200   0.333E-04 0.762E-05
 gam= 0.223 trial= 0.627  step= 0.686 mean= 0.627
 gam= 0.231 g(H,U,f)=  0.707E-05 0.610E-06 0.443E-65 ort(H,U,f) = 0.144E-06 0.801E-06 0.000E+00
CGA:   9    -0.593509502666E+03   -0.12035E-04   -0.12007E-04  1200   0.768E-05 0.945E-06
 gam= 0.231 trial= 0.630  step= 0.887 mean= 0.630
 gam= 0.403 g(H,U,f)=  0.298E-05 0.119E-06 0.136E-32 ort(H,U,f) =-0.198E-05-0.321E-07 0.708E-32
CGA:  10    -0.593509505911E+03   -0.32448E-05   -0.35028E-05  1200   0.310E-05-0.201E-05
 gam= 0.403 trial= 0.643  step= 0.685 mean= 0.643
 final diagonalization
   4 F= -.59350951E+03 E0= -.59350951E+03  d E =-.459999E-01
 trial-energy change:   -0.046000  1 .order   -0.045982   -0.055483   -0.036481
 step:   1.1195(harm=  1.1195)  dis= 0.02584  next Energy=  -593.544508 (dE=-0.810E-01)
 bond charge predicted
 wavefunctions rotated
       N       E                     dE             d eps       ncg     rms          ort
 gam= 0.000 g(H,U,f)=  0.259E+01 0.637E-01 0.402E-14 ort(H,U,f) = 0.000E+00 0.000E+00 0.000E+00
SDA:   1    -0.592785400337E+03    0.72410E+00    0.00000E+00  1200   0.265E+01 0.000E+00
 gam= 0.000 trial= 0.645  step= 0.430 mean= 0.645
 gam= 0.187 g(H,U,f)=  0.458E+00 0.359E-01 0.303E-77 ort(H,U,f) = 0.272E-01-0.283E-01 0.000E+00
CGA:   2    -0.593354641071E+03   -0.56924E+00   -0.57007E+00  1200   0.494E+00-0.115E-02
 gam= 0.187 trial= 0.635  step= 0.618 mean= 0.635
 gam= 0.210 g(H,U,f)=  0.981E-01 0.576E-02 0.525E-14 ort(H,U,f) =-0.677E-02 0.637E-02 0.413E-14
CGA:   3    -0.593507252096E+03   -0.15261E+00   -0.15261E+00  1200   0.104E+00-0.396E-03
 gam= 0.210 trial= 0.634  step= 0.536 mean= 0.634
 gam= 0.246 g(H,U,f)=  0.232E-01 0.232E-02 0.366E-14 ort(H,U,f) =-0.377E-02 0.397E-02 0.771E-14
CGA:   4    -0.593535047821E+03   -0.27796E-01   -0.27807E-01  1200   0.255E-01 0.203E-03
 gam= 0.246 trial= 0.629  step= 0.551 mean= 0.629
 gam= 0.233 g(H,U,f)=  0.480E-02 0.114E-02 0.198E-14 ort(H,U,f) =-0.198E-02 0.213E-02 0.516E-14
CGA:   5    -0.593542078310E+03   -0.70305E-02   -0.70361E-02  1200   0.594E-02 0.148E-03
 gam= 0.233 trial= 0.625  step= 0.703 mean= 0.625
 gam= 0.301 g(H,U,f)=  0.155E-02 0.240E-03 0.986E-15 ort(H,U,f) =-0.656E-03 0.660E-03 0.223E-14
CGA:   6    -0.593544177350E+03   -0.20990E-02   -0.20989E-02  1200   0.179E-02 0.357E-05
 gam= 0.301 trial= 0.629  step= 0.739 mean= 0.629
 gam= 0.313 g(H,U,f)=  0.505E-03 0.544E-04 0.621E-15 ort(H,U,f) =-0.184E-03 0.181E-03 0.169E-14
CGA:   7    -0.593544838734E+03   -0.66138E-03   -0.66157E-03  1200   0.560E-03-0.331E-05
 gam= 0.313 trial= 0.634  step= 0.690 mean= 0.634
 gam= 0.233 g(H,U,f)=  0.125E-03 0.541E-05 0.152E-15 ort(H,U,f) =-0.134E-04 0.282E-04 0.681E-15
CGA:   8    -0.593545031873E+03   -0.19314E-03   -0.19273E-03  1200   0.130E-03 0.148E-04
 gam= 0.233 trial= 0.637  step= 0.685 mean= 0.637
 gam= 0.226 g(H,U,f)=  0.271E-04 0.235E-05 0.150E-16 ort(H,U,f) =-0.713E-06 0.252E-05 0.107E-15
CGA:   9    -0.593545077740E+03   -0.45867E-04   -0.45825E-04  1200   0.294E-04 0.181E-05
 gam= 0.226 trial= 0.639  step= 0.783 mean= 0.639
 gam= 0.285 g(H,U,f)=  0.805E-05 0.333E-06 0.510E-17 ort(H,U,f) =-0.368E-05 0.138E-06 0.241E-16
CGA:  10    -0.593545089175E+03   -0.11435E-04   -0.11689E-04  1200   0.838E-05-0.354E-05
 gam= 0.285 trial= 0.647  step= 0.753 mean= 0.647
 gam= 0.230 g(H,U,f)=  0.179E-05 0.132E-06 0.293E-19 ort(H,U,f) =-0.483E-06 0.571E-07 0.950E-18
CGA:  11    -0.593545091929E+03   -0.27545E-05   -0.27767E-05  1200   0.193E-05-0.426E-06
 gam= 0.230 trial= 0.652  step= 0.613 mean= 0.652
 final diagonalization
   5 F= -.59354509E+03 E0= -.59354509E+03  d E =-.815860E-01
 curvature:  -1.26 expect dE=-0.252E+00 dE for cont linesearch -0.204E-05
 trial: gam= 1.43998 g(F)=  0.199E+00 g(S)=  0.156E-02 ort = 0.727E-03 (trialstep = 0.197E+00)
 search vector abs. value=  0.876E+00
 bond charge predicted
 wavefunctions rotated
       N       E                     dE             d eps       ncg     rms          ort
 gam= 0.000 g(H,U,f)=  0.555E+00 0.144E-01 0.207E-16 ort(H,U,f) = 0.000E+00 0.000E+00 0.000E+00
SDA:   1    -0.593383561914E+03    0.16153E+00    0.00000E+00  1200   0.569E+00 0.000E+00
 gam= 0.000 trial= 0.650  step= 0.469 mean= 0.650
 gam= 0.234 g(H,U,f)=  0.123E+00 0.968E-02 0.210E-71 ort(H,U,f) = 0.819E-02-0.858E-02 0.000E+00
CGA:   2    -0.593517067366E+03   -0.13351E+00   -0.13353E+00  1200   0.133E+00-0.392E-03
 gam= 0.234 trial= 0.641  step= 0.620 mean= 0.641
 gam= 0.181 g(H,U,f)=  0.229E-01 0.116E-02 0.332E-14 ort(H,U,f) =-0.920E-03 0.800E-03 0.312E-14
CGA:   3    -0.593558301732E+03   -0.41234E-01   -0.41233E-01  1200   0.240E-01-0.120E-03
 gam= 0.181 trial= 0.640  step= 0.542 mean= 0.640
 gam= 0.220 g(H,U,f)=  0.493E-02 0.360E-03 0.128E-14 ort(H,U,f) =-0.542E-03 0.632E-03 0.305E-14
CGA:   4    -0.593564806754E+03   -0.65050E-02   -0.65096E-02  1200   0.529E-02 0.906E-04
 gam= 0.220 trial= 0.635  step= 0.535 mean= 0.635
 gam= 0.223 g(H,U,f)=  0.983E-03 0.196E-03 0.637E-15 ort(H,U,f) =-0.276E-03 0.322E-03 0.144E-14
CGA:   5    -0.593566226342E+03   -0.14196E-02   -0.14219E-02  1200   0.118E-02 0.462E-04
 gam= 0.223 trial= 0.630  step= 0.696 mean= 0.630
 gam= 0.294 g(H,U,f)=  0.303E-03 0.429E-04 0.333E-15 ort(H,U,f) =-0.106E-03 0.103E-03 0.711E-15
CGA:   6    -0.593566640047E+03   -0.41370E-03   -0.41380E-03  1200   0.346E-03-0.295E-05
 gam= 0.294 trial= 0.633  step= 0.755 mean= 0.633
 gam= 0.328 g(H,U,f)=  0.104E-03 0.908E-05 0.151E-15 ort(H,U,f) =-0.283E-04 0.293E-04 0.419E-15
CGA:   7    -0.593566770403E+03   -0.13036E-03   -0.13030E-03  1200   0.114E-03 0.975E-06
 gam= 0.328 trial= 0.639  step= 0.680 mean= 0.639
 gam= 0.237 g(H,U,f)=  0.258E-04 0.101E-05 0.310E-16 ort(H,U,f) = 0.663E-06 0.516E-05 0.144E-15
CGA:   8    -0.593566809234E+03   -0.38831E-04   -0.38712E-04  1200   0.269E-04 0.583E-05
 gam= 0.237 trial= 0.641  step= 0.710 mean= 0.641
 gam= 0.238 g(H,U,f)=  0.597E-05 0.434E-06 0.281E-17 ort(H,U,f) = 0.119E-06 0.428E-06 0.212E-16
CGA:   9    -0.593566819281E+03   -0.10047E-04   -0.10028E-04  1200   0.640E-05 0.547E-06
 gam= 0.238 trial= 0.645  step= 0.843 mean= 0.645
 gam= 0.355 g(H,U,f)=  0.220E-05 0.770E-07 0.798E-18 ort(H,U,f) =-0.121E-05-0.332E-07 0.447E-17
CGA:  10    -0.593566821911E+03   -0.26304E-05   -0.27538E-05  1200   0.227E-05-0.125E-05
 gam= 0.355 trial= 0.655  step= 0.674 mean= 0.655
 final diagonalization
   6 F= -.59356682E+03 E0= -.59356682E+03  d E =-.217300E-01
 trial-energy change:   -0.021730  1 .order   -0.021680   -0.039707   -0.003653
 step:   0.2165(harm=  0.2165)  dis= 0.00859  next Energy=  -593.566957 (dE=-0.219E-01)
 bond charge predicted
 wavefunctions rotated
       N       E                     dE             d eps       ncg     rms          ort
 gam= 0.000 g(H,U,f)=  0.569E-02 0.144E-03 0.801E-70 ort(H,U,f) = 0.000E+00 0.000E+00 0.000E+00
SDA:   1    -0.593565122063E+03    0.16972E-02    0.00000E+00  1200   0.583E-02 0.000E+00
 gam= 0.000 trial= 0.656  step= 0.473 mean= 0.656
 gam= 0.238 g(H,U,f)=  0.128E-02 0.104E-03-0.457E-31 ort(H,U,f) = 0.388E-04-0.884E-04-0.104E-32
CGA:   2    -0.593566505561E+03   -0.13835E-02   -0.13790E-02  1200   0.139E-02-0.496E-04
 gam= 0.238 trial= 0.647  step= 0.620 mean= 0.647
 gam= 0.182 g(H,U,f)=  0.240E-03 0.121E-04-0.186E-69 ort(H,U,f) =-0.198E-04 0.854E-05 0.000E+00
CGA:   3    -0.593566932273E+03   -0.42671E-03   -0.42656E-03  1200   0.252E-03-0.113E-04
 gam= 0.182 trial= 0.645  step= 0.520 mean= 0.645
 gam= 0.207 g(H,U,f)=  0.482E-04 0.387E-05-0.114E-31 ort(H,U,f) = 0.174E-05 0.679E-05-0.263E-31
CGA:   4    -0.593566996784E+03   -0.64511E-04   -0.65045E-04  1200   0.521E-04 0.853E-05
 gam= 0.207 trial= 0.639  step= 0.508 mean= 0.639
 gam= 0.207 g(H,U,f)=  0.861E-05 0.216E-05-0.128E-70 ort(H,U,f) = 0.102E-05 0.351E-05 0.000E+00
CGA:   5    -0.593567010167E+03   -0.13384E-04   -0.13681E-04  1200   0.108E-04 0.453E-05
 gam= 0.207 trial= 0.632  step= 0.730 mean= 0.632
 gam= 0.344 g(H,U,f)=  0.324E-05 0.465E-06-0.840E-71 ort(H,U,f) =-0.106E-05 0.114E-05 0.000E+00
CGA:   6    -0.593567014446E+03   -0.42781E-05   -0.42741E-05  1200   0.370E-05 0.780E-07
 gam= 0.344 trial= 0.637  step= 0.713 mean= 0.637
 gam= 0.324 g(H,U,f)=  0.110E-05 0.980E-07-0.173E-71 ort(H,U,f) =-0.176E-06 0.329E-06 0.000E+00
CGA:   7    -0.593567015781E+03   -0.13351E-05   -0.13292E-05  1200   0.120E-05 0.153E-06
 gam= 0.324 trial= 0.641  step= 0.495 mean= 0.641
 gam= 0.255 g(H,U,f)=  0.283E-06 0.214E-07-0.156E-72 ort(H,U,f) = 0.299E-06 0.950E-07 0.000E+00
CGA:   8    -0.593567016060E+03   -0.27933E-06   -0.30834E-06  1200   0.305E-06 0.394E-06
 gam= 0.255 trial= 0.634  step= 0.471 mean= 0.634
 final diagonalization
   7 F= -.59356702E+03 E0= -.59356702E+03  d E =-.219241E-01
 curvature:  -0.47 expect dE=-0.123E-01 dE for cont linesearch -0.785E-07
 trial: gam= 0.14519 g(F)=  0.250E-01 g(S)=  0.126E-02 ort = 0.383E-03 (trialstep = 0.201E+00)
 search vector abs. value=  0.448E-01
 bond charge predicted
 wavefunctions rotated
       N       E                     dE             d eps       ncg     rms          ort
 gam= 0.000 g(H,U,f)=  0.342E-01 0.113E-02 0.425E-31 ort(H,U,f) = 0.000E+00 0.000E+00 0.000E+00
SDA:   1    -0.593560170442E+03    0.68453E-02    0.00000E+00  1200   0.354E-01 0.000E+00
 gam= 0.000 trial= 0.626  step= 0.470 mean= 0.626
 gam= 0.211 g(H,U,f)=  0.683E-02 0.631E-03-0.366E-30 ort(H,U,f) = 0.667E-03-0.742E-03 0.190E-30
CGA:   2    -0.593568488943E+03   -0.83185E-02   -0.83131E-02  1200   0.746E-02-0.747E-04
 gam= 0.211 trial= 0.618  step= 0.637 mean= 0.618
 gam= 0.166 g(H,U,f)=  0.116E-02 0.706E-04-0.328E-70 ort(H,U,f) =-0.172E-04-0.250E-05 0.000E+00
CGA:   3    -0.593570856863E+03   -0.23679E-02   -0.23681E-02  1200   0.123E-02-0.197E-04
 gam= 0.166 trial= 0.619  step= 0.584 mean= 0.619
 gam= 0.212 g(H,U,f)=  0.243E-03 0.184E-04-0.315E-31 ort(H,U,f) =-0.205E-04 0.324E-04-0.653E-31
CGA:   4    -0.593571216103E+03   -0.35924E-03   -0.35945E-03  1200   0.262E-03 0.119E-04
 gam= 0.212 trial= 0.617  step= 0.564 mean= 0.617
 gam= 0.277 g(H,U,f)=  0.628E-04 0.959E-05-0.245E-31 ort(H,U,f) =-0.138E-04 0.170E-04-0.499E-31
CGA:   5    -0.593571290509E+03   -0.74406E-04   -0.74491E-04  1200   0.724E-04 0.321E-05
 gam= 0.277 trial= 0.614  step= 0.686 mean= 0.614
 gam= 0.312 g(H,U,f)=  0.201E-04 0.247E-05-0.102E-71 ort(H,U,f) =-0.617E-05 0.481E-05 0.000E+00
CGA:   6    -0.593571315608E+03   -0.25099E-04   -0.25148E-04  1200   0.226E-04-0.136E-05
 gam= 0.312 trial= 0.618  step= 0.748 mean= 0.618
 gam= 0.285 g(H,U,f)=  0.611E-05 0.332E-06-0.209E-72 ort(H,U,f) =-0.746E-06 0.130E-05 0.000E+00
CGA:   7    -0.593571323939E+03   -0.83311E-05   -0.82955E-05  1200   0.644E-05 0.550E-06
 gam= 0.285 trial= 0.625  step= 0.636 mean= 0.625
 gam= 0.214 g(H,U,f)=  0.133E-05 0.485E-07 0.591E-33 ort(H,U,f) = 0.581E-06 0.198E-06 0.293E-32
CGA:   8    -0.593571326039E+03   -0.21008E-05   -0.20963E-05  1200   0.138E-05 0.779E-06
 gam= 0.214 trial= 0.625  step= 0.744 mean= 0.625
 final diagonalization
   8 F= -.59357133E+03 E0= -.59357133E+03  d E =-.430998E-02
 trial-energy change:   -0.004310  1 .order   -0.004304   -0.005276   -0.003332
 step:   0.5444(harm=  0.5444)  dis= 0.00712  next Energy=  -593.574176 (dE=-0.716E-02)
 bond charge predicted
 wavefunctions rotated
       N       E                     dE             d eps       ncg     rms          ort
 gam= 0.000 g(H,U,f)=  0.101E+00 0.331E-02 0.254E-30 ort(H,U,f) = 0.000E+00 0.000E+00 0.000E+00
SDA:   1    -0.593541438293E+03    0.29886E-01    0.00000E+00  1200   0.104E+00 0.000E+00
 gam= 0.000 trial= 0.631  step= 0.470 mean= 0.631
 gam= 0.211 g(H,U,f)=  0.200E-01 0.185E-02 0.120E-29 ort(H,U,f) = 0.205E-02-0.217E-02-0.612E-30
CGA:   2    -0.593565839096E+03   -0.24401E-01   -0.24393E-01  1200   0.219E-01-0.122E-03
 gam= 0.211 trial= 0.623  step= 0.636 mean= 0.623
 gam= 0.165 g(H,U,f)=  0.341E-02 0.207E-03-0.108E-70 ort(H,U,f) =-0.284E-04-0.527E-05 0.000E+00
CGA:   3    -0.593572787893E+03   -0.69488E-02   -0.69490E-02  1200   0.362E-02-0.336E-04
 gam= 0.165 trial= 0.624  step= 0.587 mean= 0.624
 gam= 0.213 g(H,U,f)=  0.717E-03 0.537E-04-0.182E-30 ort(H,U,f) =-0.745E-04 0.948E-04-0.378E-30
CGA:   4    -0.593573847918E+03   -0.10600E-02   -0.10604E-02  1200   0.771E-03 0.203E-04
 gam= 0.213 trial= 0.622  step= 0.566 mean= 0.622
 gam= 0.278 g(H,U,f)=  0.186E-03 0.279E-04-0.703E-31 ort(H,U,f) =-0.444E-04 0.498E-04-0.144E-30
CGA:   5    -0.593574067087E+03   -0.21917E-03   -0.21932E-03  1200   0.214E-03 0.540E-05
 gam= 0.278 trial= 0.619  step= 0.678 mean= 0.619
 gam= 0.305 g(H,U,f)=  0.582E-04 0.725E-05-0.461E-72 ort(H,U,f) =-0.167E-04 0.144E-04 0.000E+00
CGA:   6    -0.593574140182E+03   -0.73095E-04   -0.73163E-04  1200   0.654E-04-0.231E-05
 gam= 0.305 trial= 0.622  step= 0.760 mean= 0.622
 gam= 0.294 g(H,U,f)=  0.182E-04 0.984E-06-0.106E-72 ort(H,U,f) =-0.281E-05 0.376E-05 0.000E+00
CGA:   7    -0.593574164823E+03   -0.24641E-04   -0.24576E-04  1200   0.192E-04 0.950E-06
 gam= 0.294 trial= 0.629  step= 0.664 mean= 0.629
 gam= 0.220 g(H,U,f)=  0.409E-05 0.136E-06-0.154E-32 ort(H,U,f) = 0.889E-06 0.503E-06-0.856E-32
CGA:   8    -0.593574171320E+03   -0.64970E-05   -0.64727E-05  1200   0.423E-05 0.139E-05
 gam= 0.220 trial= 0.631  step= 0.735 mean= 0.631
 gam= 0.245 g(H,U,f)=  0.983E-06 0.505E-07 0.936E-34 ort(H,U,f) =-0.129E-06 0.857E-07 0.947E-33
CGA:   9    -0.593574172983E+03   -0.16630E-05   -0.16650E-05  1200   0.103E-05-0.429E-07
 gam= 0.245 trial= 0.636  step= 0.864 mean= 0.636
 final diagonalization
   9 F= -.59357417E+03 E0= -.59357417E+03  d E =-.715692E-02
 curvature:  -0.46 expect dE=-0.132E-01 dE for cont linesearch -0.874E-07
 trial: gam= 1.08502 g(F)=  0.276E-01 g(S)=  0.869E-03 ort =-0.919E-04 (trialstep = 0.149E+00)
 search vector abs. value=  0.811E-01
 bond charge predicted
 wavefunctions rotated
       N       E                     dE             d eps       ncg     rms          ort
 gam= 0.000 g(H,U,f)=  0.318E-01 0.125E-02 0.936E-72 ort(H,U,f) = 0.000E+00 0.000E+00 0.000E+00
SDA:   1    -0.593568597889E+03    0.55734E-02    0.00000E+00  1200   0.330E-01 0.000E+00
 gam= 0.000 trial= 0.647  step= 0.441 mean= 0.647
 gam= 0.170 g(H,U,f)=  0.510E-02 0.507E-03-0.125E-74 ort(H,U,f) = 0.677E-03-0.709E-03 0.000E+00
CGA:   2    -0.593575889050E+03   -0.72912E-02   -0.72882E-02  1200   0.561E-02-0.316E-04
 gam= 0.170 trial= 0.637  step= 0.630 mean= 0.637
 gam= 0.154 g(H,U,f)=  0.825E-03 0.370E-04 0.165E-72 ort(H,U,f) =-0.378E-05-0.743E-05 0.000E+00
CGA:   3    -0.593577653431E+03   -0.17644E-02   -0.17643E-02  1200   0.862E-03-0.112E-04
 gam= 0.154 trial= 0.637  step= 0.623 mean= 0.637
 gam= 0.215 g(H,U,f)=  0.172E-03 0.134E-04-0.113E-73 ort(H,U,f) =-0.122E-04 0.164E-04 0.000E+00
CGA:   4    -0.593577921527E+03   -0.26810E-03   -0.26812E-03  1200   0.185E-03 0.421E-05
 gam= 0.215 trial= 0.636  step= 0.582 mean= 0.636
 gam= 0.304 g(H,U,f)=  0.507E-04 0.561E-05 0.282E-32 ort(H,U,f) =-0.931E-05 0.105E-04 0.970E-32
CGA:   5    -0.593577975747E+03   -0.54220E-04   -0.54252E-04  1200   0.563E-04 0.117E-05
 gam= 0.304 trial= 0.633  step= 0.659 mean= 0.633
 gam= 0.303 g(H,U,f)=  0.157E-04 0.138E-05 0.253E-74 ort(H,U,f) =-0.345E-05 0.269E-05 0.000E+00
CGA:   6    -0.593577994425E+03   -0.18678E-04   -0.18688E-04  1200   0.171E-04-0.763E-06
 gam= 0.303 trial= 0.634  step= 0.724 mean= 0.634
 gam= 0.286 g(H,U,f)=  0.458E-05 0.292E-06-0.972E-32 ort(H,U,f) =-0.422E-06 0.711E-06-0.100E-31
CGA:   7    -0.593578000530E+03   -0.61053E-05   -0.60925E-05  1200   0.488E-05 0.289E-06
 gam= 0.286 trial= 0.639  step= 0.655 mean= 0.639
 gam= 0.219 g(H,U,f)=  0.101E-05 0.536E-07 0.275E-33 ort(H,U,f) = 0.222E-06 0.125E-06 0.171E-32
CGA:   8    -0.593578002156E+03   -0.16263E-05   -0.16240E-05  1200   0.107E-05 0.347E-06
 gam= 0.219 trial= 0.640  step= 0.774 mean= 0.640
 final diagonalization
  10 F= -.59357800E+03 E0= -.59357800E+03  d E =-.382917E-02
 ZBRENT: can't locate minimum, use default step
 trial-energy change:   -0.003829  1 .order   -0.003818   -0.004230   -0.003406
 step:   0.5957(harm=  0.7642)  dis= 0.01124  next Energy=  -593.585027 (dE=-0.109E-01)
 bond charge predicted
 wavefunctions rotated
       N       E                     dE             d eps       ncg     rms          ort
 gam= 0.000 g(H,U,f)=  0.286E+00 0.112E-01 0.900E-73 ort(H,U,f) = 0.000E+00 0.000E+00 0.000E+00
SDA:   1    -0.593499936549E+03    0.78064E-01    0.00000E+00  1200   0.297E+00 0.000E+00
 gam= 0.000 trial= 0.646  step= 0.441 mean= 0.646
 gam= 0.170 g(H,U,f)=  0.459E-01 0.458E-02 0.160E-31 ort(H,U,f) = 0.628E-02-0.637E-02 0.412E-30
CGA:   2    -0.593565506599E+03   -0.65570E-01   -0.65569E-01  1200   0.505E-01-0.884E-04
 gam= 0.170 trial= 0.636  step= 0.629 mean= 0.636
 gam= 0.153 g(H,U,f)=  0.742E-02 0.333E-03 0.266E-31 ort(H,U,f) = 0.243E-04-0.612E-04 0.869E-31
CGA:   3    -0.593581386069E+03   -0.15879E-01   -0.15879E-01  1200   0.775E-02-0.369E-04
 gam= 0.153 trial= 0.636  step= 0.626 mean= 0.636
 gam= 0.216 g(H,U,f)=  0.156E-02 0.121E-03-0.133E-74 ort(H,U,f) =-0.136E-03 0.148E-03 0.000E+00
CGA:   4    -0.593583809934E+03   -0.24239E-02   -0.24239E-02  1200   0.168E-02 0.122E-04
 gam= 0.216 trial= 0.635  step= 0.584 mean= 0.635
 gam= 0.305 g(H,U,f)=  0.462E-03 0.504E-04-0.365E-31 ort(H,U,f) =-0.909E-04 0.944E-04-0.140E-30
CGA:   5    -0.593584300259E+03   -0.49032E-03   -0.49041E-03  1200   0.512E-03 0.356E-05
 gam= 0.305 trial= 0.633  step= 0.650 mean= 0.633
 gam= 0.295 g(H,U,f)=  0.138E-03 0.125E-04 0.375E-31 ort(H,U,f) =-0.271E-04 0.249E-04 0.835E-31
CGA:   6    -0.593584467011E+03   -0.16675E-03   -0.16677E-03  1200   0.151E-03-0.220E-05
 gam= 0.295 trial= 0.634  step= 0.737 mean= 0.634
 gam= 0.297 g(H,U,f)=  0.421E-04 0.271E-05-0.147E-30 ort(H,U,f) =-0.554E-05 0.633E-05-0.137E-30
CGA:   7    -0.593584522481E+03   -0.55470E-04   -0.55429E-04  1200   0.448E-04 0.795E-06
 gam= 0.297 trial= 0.639  step= 0.680 mean= 0.639
 gam= 0.228 g(H,U,f)=  0.974E-05 0.495E-06-0.648E-32 ort(H,U,f) = 0.151E-06 0.959E-06-0.518E-31
CGA:   8    -0.593584537817E+03   -0.15335E-04   -0.15313E-04  1200   0.102E-04 0.111E-05
 gam= 0.228 trial= 0.641  step= 0.737 mean= 0.641
 gam= 0.240 g(H,U,f)=  0.238E-05 0.817E-07 0.313E-76 ort(H,U,f) =-0.293E-06 0.190E-06 0.000E+00
CGA:   9    -0.593584541676E+03   -0.38599E-05   -0.38649E-05  1200   0.246E-05-0.102E-06
 gam= 0.240 trial= 0.646  step= 0.745 mean= 0.646
 final diagonalization
  11 F= -.59358454E+03 E0= -.59358454E+03  d E =-.103687E-01
 curvature:  -1.01 expect dE=-0.332E-01 dE for cont linesearch -0.508E-03
 trial: gam= 0.91686 g(F)=  0.309E-01 g(S)=  0.208E-02 ort = 0.639E-02 (trialstep = 0.171E+00)
 search vector abs. value=  0.113E+00
 bond charge predicted
 wavefunctions rotated
       N       E                     dE             d eps       ncg     rms          ort
 gam= 0.000 g(H,U,f)=  0.670E-01 0.248E-02 0.374E-29 ort(H,U,f) = 0.000E+00 0.000E+00 0.000E+00
SDA:   1    -0.593567929079E+03    0.16609E-01    0.00000E+00  1200   0.695E-01 0.000E+00
 gam= 0.000 trial= 0.651  step= 0.471 mean= 0.651
 gam= 0.213 g(H,U,f)=  0.136E-01 0.124E-02 0.163E-74 ort(H,U,f) = 0.161E-02-0.159E-02 0.000E+00
CGA:   2    -0.593584270609E+03   -0.16342E-01   -0.16344E-01  1200   0.148E-01 0.222E-04
 gam= 0.213 trial= 0.642  step= 0.641 mean= 0.642
 gam= 0.158 g(H,U,f)=  0.221E-02 0.134E-03 0.143E-29 ort(H,U,f) = 0.259E-04-0.237E-04 0.700E-30
CGA:   3    -0.593589020545E+03   -0.47499E-02   -0.47499E-02  1200   0.234E-02 0.222E-05
 gam= 0.158 trial= 0.642  step= 0.607 mean= 0.642
 gam= 0.208 g(H,U,f)=  0.455E-03 0.328E-04 0.124E-34 ort(H,U,f) =-0.555E-04 0.524E-04 0.578E-32
CGA:   4    -0.593589730956E+03   -0.71041E-03   -0.71036E-03  1200   0.487E-03-0.307E-05
 gam= 0.208 trial= 0.640  step= 0.568 mean= 0.640
 gam= 0.284 g(H,U,f)=  0.124E-03 0.148E-04 0.746E-31 ort(H,U,f) =-0.298E-04 0.281E-04 0.779E-31
CGA:   5    -0.593589869381E+03   -0.13842E-03   -0.13836E-03  1200   0.138E-03-0.168E-05
 gam= 0.284 trial= 0.636  step= 0.662 mean= 0.636
 gam= 0.299 g(H,U,f)=  0.370E-04 0.439E-05 0.388E-31 ort(H,U,f) =-0.792E-05 0.896E-05 0.982E-31
CGA:   6    -0.593589915069E+03   -0.45688E-04   -0.45675E-04  1200   0.414E-04 0.104E-05
 gam= 0.299 trial= 0.638  step= 0.762 mean= 0.638
 gam= 0.318 g(H,U,f)=  0.124E-04 0.738E-06 0.136E-31 ort(H,U,f) =-0.191E-05 0.194E-05-0.359E-31
CGA:   7    -0.593589930970E+03   -0.15902E-04   -0.15900E-04  1200   0.132E-04 0.222E-07
 gam= 0.318 trial= 0.644  step= 0.710 mean= 0.644
 gam= 0.243 g(H,U,f)=  0.311E-05 0.910E-07-0.132E-32 ort(H,U,f) =-0.604E-06 0.231E-06 0.584E-33
CGA:   8    -0.593589935634E+03   -0.46642E-05   -0.46766E-05  1200   0.321E-05-0.374E-06
 gam= 0.243 trial= 0.647  step= 0.688 mean= 0.647
 final diagonalization
  12 F= -.59358994E+03 E0= -.59358994E+03  d E =-.539396E-02
 trial-energy change:   -0.005394  1 .order   -0.005396   -0.006643   -0.004150
 step:   0.4563(harm=  0.4563)  dis= 0.01047  next Energy=  -593.593392 (dE=-0.885E-02)
 bond charge predicted
 wavefunctions rotated
       N       E                     dE             d eps       ncg     rms          ort
 gam= 0.000 g(H,U,f)=  0.186E+00 0.687E-02 0.720E-74 ort(H,U,f) = 0.000E+00 0.000E+00 0.000E+00
SDA:   1    -0.593532426204E+03    0.57505E-01    0.00000E+00  1200   0.192E+00 0.000E+00
 gam= 0.000 trial= 0.649  step= 0.471 mean= 0.649
 gam= 0.213 g(H,U,f)=  0.376E-01 0.344E-02 0.151E-21 ort(H,U,f) = 0.445E-02-0.441E-02-0.271E-21
CGA:   2    -0.593577716320E+03   -0.45290E-01   -0.45294E-01  1200   0.410E-01 0.386E-04
 gam= 0.213 trial= 0.640  step= 0.642 mean= 0.640
 gam= 0.158 g(H,U,f)=  0.610E-02 0.373E-03 0.131E-74 ort(H,U,f) = 0.710E-04-0.693E-04 0.000E+00
CGA:   3    -0.593590875414E+03   -0.13159E-01   -0.13159E-01  1200   0.648E-02 0.172E-05
 gam= 0.158 trial= 0.640  step= 0.607 mean= 0.640
 gam= 0.207 g(H,U,f)=  0.125E-02 0.911E-04-0.146E-32 ort(H,U,f) =-0.150E-03 0.145E-03-0.143E-30
CGA:   4    -0.593592841568E+03   -0.19662E-02   -0.19661E-02  1200   0.134E-02-0.555E-05
 gam= 0.207 trial= 0.639  step= 0.570 mean= 0.639
 gam= 0.285 g(H,U,f)=  0.341E-03 0.408E-04-0.612E-77 ort(H,U,f) =-0.803E-04 0.776E-04 0.000E+00
CGA:   5    -0.593593223899E+03   -0.38233E-03   -0.38224E-03  1200   0.382E-03-0.273E-05
 gam= 0.285 trial= 0.635  step= 0.664 mean= 0.635
 gam= 0.301 g(H,U,f)=  0.103E-03 0.121E-04 0.106E-76 ort(H,U,f) =-0.229E-04 0.246E-04 0.000E+00
CGA:   6    -0.593593350557E+03   -0.12666E-03   -0.12663E-03  1200   0.115E-03 0.176E-05
 gam= 0.301 trial= 0.637  step= 0.761 mean= 0.637
 gam= 0.317 g(H,U,f)=  0.344E-04 0.203E-05-0.379E-31 ort(H,U,f) =-0.533E-05 0.533E-05 0.112E-30
CGA:   7    -0.593593394508E+03   -0.43951E-04   -0.43951E-04  1200   0.364E-04 0.414E-08
 gam= 0.317 trial= 0.643  step= 0.702 mean= 0.643
 gam= 0.238 g(H,U,f)=  0.841E-05 0.252E-06-0.109E-78 ort(H,U,f) =-0.127E-05 0.663E-06 0.000E+00
CGA:   8    -0.593593407284E+03   -0.12776E-04   -0.12794E-04  1200   0.866E-05-0.609E-06
 gam= 0.238 trial= 0.646  step= 0.695 mean= 0.646
 gam= 0.210 g(H,U,f)=  0.177E-05 0.484E-07 0.704E-26 ort(H,U,f) =-0.936E-07 0.107E-06-0.227E-25
CGA:   9    -0.593593410246E+03   -0.29618E-05   -0.29613E-05  1200   0.182E-05 0.130E-07
 gam= 0.210 trial= 0.648  step= 0.693 mean= 0.648
 final diagonalization
  13 F= -.59359341E+03 E0= -.59359341E+03  d E =-.886857E-02
 curvature:  -0.66 expect dE=-0.178E-01 dE for cont linesearch -0.130E-06
 trial: gam= 1.11544 g(F)=  0.253E-01 g(S)=  0.155E-02 ort = 0.149E-03 (trialstep = 0.154E+00)
 search vector abs. value=  0.168E+00
 bond charge predicted
 wavefunctions rotated
       N       E                     dE             d eps       ncg     rms          ort
 gam= 0.000 g(H,U,f)=  0.735E-01 0.324E-02 0.187E-21 ort(H,U,f) = 0.000E+00 0.000E+00 0.000E+00
SDA:   1    -0.593576200721E+03    0.17207E-01    0.00000E+00  1200   0.768E-01 0.000E+00
 gam= 0.000 trial= 0.651  step= 0.430 mean= 0.651
 gam= 0.154 g(H,U,f)=  0.107E-01 0.107E-02 0.287E-21 ort(H,U,f) = 0.168E-02-0.164E-02-0.296E-21
CGA:   2    -0.593592709353E+03   -0.16509E-01   -0.16514E-01  1200   0.118E-01 0.470E-04
 gam= 0.154 trial= 0.640  step= 0.625 mean= 0.640
 gam= 0.158 g(H,U,f)=  0.176E-02 0.102E-03 0.417E-21 ort(H,U,f) = 0.155E-04-0.144E-05 0.243E-21
CGA:   3    -0.593596396799E+03   -0.36874E-02   -0.36875E-02  1200   0.186E-02 0.140E-04
 gam= 0.158 trial= 0.639  step= 0.644 mean= 0.639
 gam= 0.232 g(H,U,f)=  0.397E-03 0.358E-04 0.231E-22 ort(H,U,f) =-0.546E-04 0.467E-04 0.101E-21
CGA:   4    -0.593596997515E+03   -0.60072E-03   -0.60074E-03  1200   0.432E-03-0.786E-05
 gam= 0.232 trial= 0.639  step= 0.607 mean= 0.639
 gam= 0.319 g(H,U,f)=  0.126E-03 0.124E-04 0.353E-22 ort(H,U,f) =-0.295E-04 0.262E-04 0.581E-22
CGA:   5    -0.593597128269E+03   -0.13075E-03   -0.13070E-03  1200   0.138E-03-0.332E-05
 gam= 0.319 trial= 0.638  step= 0.649 mean= 0.638
 gam= 0.283 g(H,U,f)=  0.357E-04 0.341E-05 0.115E-22 ort(H,U,f) =-0.667E-05 0.730E-05 0.307E-22
CGA:   6    -0.593597172734E+03   -0.44465E-04   -0.44462E-04  1200   0.392E-04 0.623E-06
 gam= 0.283 trial= 0.638  step= 0.730 mean= 0.638
 gam= 0.298 g(H,U,f)=  0.110E-04 0.704E-06 0.845E-25 ort(H,U,f) =-0.175E-05 0.148E-05 0.179E-23
CGA:   7    -0.593597187073E+03   -0.14340E-04   -0.14352E-04  1200   0.117E-04-0.267E-06
 gam= 0.298 trial= 0.643  step= 0.713 mean= 0.643
 gam= 0.258 g(H,U,f)=  0.287E-05 0.145E-06 0.555E-24 ort(H,U,f) =-0.796E-06 0.147E-06 0.166E-23
CGA:   8    -0.593597191185E+03   -0.41116E-05   -0.41341E-05  1200   0.302E-05-0.649E-06
 gam= 0.258 trial= 0.646  step= 0.693 mean= 0.646
 final diagonalization
  14 F= -.59359719E+03 E0= -.59359719E+03  d E =-.378094E-02
 ZBRENT: can't locate minimum, use default step
 trial-energy change:   -0.003781  1 .order   -0.003780   -0.004150   -0.003411
 step:   0.6148(harm=  0.8629)  dis= 0.01904  next Energy=  -593.605059 (dE=-0.116E-01)
 bond charge predicted
 wavefunctions rotated
       N       E                     dE             d eps       ncg     rms          ort
 gam= 0.000 g(H,U,f)=  0.662E+00 0.292E-01 0.641E-19 ort(H,U,f) = 0.000E+00 0.000E+00 0.000E+00
SDA:   1    -0.593415044789E+03    0.18214E+00    0.00000E+00  1200   0.691E+00 0.000E+00
 gam= 0.000 trial= 0.649  step= 0.430 mean= 0.649
 gam= 0.154 g(H,U,f)=  0.965E-01 0.966E-02 0.115E-18 ort(H,U,f) = 0.149E-01-0.148E-01-0.122E-18
CGA:   2    -0.593563702275E+03   -0.14866E+00   -0.14868E+00  1200   0.106E+00 0.154E-03
 gam= 0.154 trial= 0.638  step= 0.626 mean= 0.638
 gam= 0.158 g(H,U,f)=  0.159E-01 0.932E-03 0.207E-18 ort(H,U,f) = 0.518E-04-0.202E-04 0.134E-18
CGA:   3    -0.593596931755E+03   -0.33229E-01   -0.33230E-01  1200   0.168E-01 0.316E-04
 gam= 0.158 trial= 0.637  step= 0.643 mean= 0.637
 gam= 0.230 g(H,U,f)=  0.353E-02 0.329E-03 0.815E-20 ort(H,U,f) =-0.452E-03 0.426E-03 0.339E-19
CGA:   4    -0.593602332126E+03   -0.54004E-02   -0.54004E-02  1200   0.386E-02-0.263E-04
 gam= 0.230 trial= 0.637  step= 0.609 mean= 0.637
 gam= 0.318 g(H,U,f)=  0.112E-02 0.113E-03 0.116E-19 ort(H,U,f) =-0.247E-03 0.238E-03 0.191E-19
CGA:   5    -0.593603505123E+03   -0.11730E-02   -0.11729E-02  1200   0.123E-02-0.931E-05
 gam= 0.318 trial= 0.636  step= 0.653 mean= 0.636
 gam= 0.287 g(H,U,f)=  0.322E-03 0.307E-04 0.345E-20 ort(H,U,f) =-0.638E-04 0.659E-04 0.927E-20
CGA:   6    -0.593603905087E+03   -0.39996E-03   -0.39995E-03  1200   0.353E-03 0.202E-05
 gam= 0.287 trial= 0.637  step= 0.724 mean= 0.637
 gam= 0.293 g(H,U,f)=  0.973E-04 0.629E-05 0.401E-22 ort(H,U,f) =-0.145E-04 0.135E-04 0.631E-21
CGA:   7    -0.593604033042E+03   -0.12795E-03   -0.12800E-03  1200   0.104E-03-0.945E-06
 gam= 0.293 trial= 0.641  step= 0.690 mean= 0.641
 gam= 0.241 g(H,U,f)=  0.237E-04 0.126E-05 0.136E-21 ort(H,U,f) =-0.346E-05 0.165E-05 0.428E-21
CGA:   8    -0.593604068611E+03   -0.35569E-04   -0.35613E-04  1200   0.250E-04-0.180E-05
 gam= 0.241 trial= 0.644  step= 0.711 mean= 0.644
 gam= 0.219 g(H,U,f)=  0.533E-05 0.135E-06 0.215E-23 ort(H,U,f) =-0.372E-06 0.408E-06 0.312E-22
CGA:   9    -0.593604077340E+03   -0.87291E-05   -0.87282E-05  1200   0.547E-05 0.361E-07
 gam= 0.219 trial= 0.647  step= 0.691 mean= 0.647
 gam= 0.221 g(H,U,f)=  0.115E-05 0.653E-07 0.320E-24 ort(H,U,f) = 0.294E-06 0.765E-07-0.363E-23
CGA:  10    -0.593604079242E+03   -0.19019E-05   -0.18934E-05  1200   0.121E-05 0.371E-06
 gam= 0.221 trial= 0.649  step= 0.816 mean= 0.649
 final diagonalization
  15 F= -.59360408E+03 E0= -.59360408E+03  d E =-.106690E-01
 curvature:  -2.35 expect dE=-0.993E-01 dE for cont linesearch -0.808E-03
 trial: gam= 0.94060 g(F)=  0.413E-01 g(S)=  0.936E-03 ort = 0.759E-02 (trialstep = 0.201E+00)
 search vector abs. value=  0.205E+00
 bond charge predicted
 wavefunctions rotated
       N       E                     dE             d eps       ncg     rms          ort
 gam= 0.000 g(H,U,f)=  0.160E+00 0.658E-02 0.206E-19 ort(H,U,f) = 0.000E+00 0.000E+00 0.000E+00
SDA:   1    -0.593563462145E+03    0.40615E-01    0.00000E+00  1200   0.167E+00 0.000E+00
 gam= 0.000 trial= 0.657  step= 0.448 mean= 0.657
 gam= 0.178 g(H,U,f)=  0.270E-01 0.260E-02 0.527E-19 ort(H,U,f) = 0.378E-02-0.373E-02-0.254E-19
CGA:   2    -0.593600782828E+03   -0.37321E-01   -0.37327E-01  1200   0.296E-01 0.504E-04
 gam= 0.178 trial= 0.647  step= 0.631 mean= 0.647
 gam= 0.165 g(H,U,f)=  0.461E-02 0.274E-03 0.516E-18 ort(H,U,f) = 0.287E-04-0.180E-04 0.244E-18
CGA:   3    -0.593610144837E+03   -0.93620E-02   -0.93621E-02  1200   0.488E-02 0.108E-04
 gam= 0.165 trial= 0.646  step= 0.631 mean= 0.646
 gam= 0.219 g(H,U,f)=  0.978E-03 0.896E-04 0.206E-19 ort(H,U,f) =-0.139E-03 0.126E-03 0.940E-19
CGA:   4    -0.593611685976E+03   -0.15411E-02   -0.15410E-02  1200   0.107E-02-0.129E-04
 gam= 0.219 trial= 0.645  step= 0.603 mean= 0.645
 gam= 0.301 g(H,U,f)=  0.288E-03 0.325E-04 0.335E-19 ort(H,U,f) =-0.734E-04 0.665E-04 0.526E-19
CGA:   5    -0.593612006964E+03   -0.32099E-03   -0.32084E-03  1200   0.321E-03-0.689E-05
 gam= 0.301 trial= 0.643  step= 0.666 mean= 0.643
 gam= 0.293 g(H,U,f)=  0.846E-04 0.945E-05 0.126E-19 ort(H,U,f) =-0.200E-04 0.196E-04 0.298E-19
CGA:   6    -0.593612113087E+03   -0.10612E-03   -0.10613E-03  1200   0.941E-04-0.351E-06
 gam= 0.293 trial= 0.644  step= 0.753 mean= 0.644
 gam= 0.302 g(H,U,f)=  0.269E-04 0.152E-05 0.353E-21 ort(H,U,f) =-0.471E-05 0.449E-05 0.348E-20
CGA:   7    -0.593612148448E+03   -0.35361E-04   -0.35373E-04  1200   0.284E-04-0.219E-06
 gam= 0.302 trial= 0.650  step= 0.699 mean= 0.650
 gam= 0.244 g(H,U,f)=  0.664E-05 0.282E-06 0.540E-21 ort(H,U,f) =-0.844E-06 0.286E-06 0.177E-20
CGA:   8    -0.593612158328E+03   -0.98799E-05   -0.98939E-05  1200   0.692E-05-0.558E-06
 gam= 0.244 trial= 0.652  step= 0.691 mean= 0.652
 gam= 0.202 g(H,U,f)=  0.136E-05 0.399E-07 0.112E-22 ort(H,U,f) =-0.257E-07 0.925E-07 0.142E-21
CGA:   9    -0.593612160673E+03   -0.23444E-05   -0.23430E-05  1200   0.140E-05 0.668E-07
 gam= 0.202 trial= 0.654  step= 0.645 mean= 0.654
 final diagonalization
  16 F= -.59361216E+03 E0= -.59361216E+03  d E =-.808143E-02
 trial-energy change:   -0.008081  1 .order   -0.008066   -0.009939   -0.006193
 step:   0.5340(harm=  0.5340)  dis= 0.01806  next Energy=  -593.617266 (dE=-0.132E-01)
 bond charge predicted
 wavefunctions rotated
       N       E                     dE             d eps       ncg     rms          ort
 gam= 0.000 g(H,U,f)=  0.438E+00 0.180E-01 0.358E-17 ort(H,U,f) = 0.000E+00 0.000E+00 0.000E+00
SDA:   1    -0.593484129567E+03    0.12803E+00    0.00000E+00  1200   0.456E+00 0.000E+00
 gam= 0.000 trial= 0.654  step= 0.448 mean= 0.654
 gam= 0.178 g(H,U,f)=  0.739E-01 0.713E-02 0.531E-17 ort(H,U,f) = 0.103E-01-0.102E-01-0.289E-17
CGA:   2    -0.593586179895E+03   -0.10205E+00   -0.10206E+00  1200   0.811E-01 0.893E-04
 gam= 0.178 trial= 0.643  step= 0.631 mean= 0.643
 gam= 0.165 g(H,U,f)=  0.126E-01 0.759E-03 0.184E-16 ort(H,U,f) = 0.665E-04-0.521E-04 0.938E-17
CGA:   3    -0.593611782858E+03   -0.25603E-01   -0.25603E-01  1200   0.134E-01 0.144E-04
 gam= 0.165 trial= 0.643  step= 0.630 mean= 0.643
 gam= 0.218 g(H,U,f)=  0.267E-02 0.247E-03 0.246E-17 ort(H,U,f) =-0.369E-03 0.346E-03 0.110E-16
CGA:   4    -0.593615998919E+03   -0.42161E-02   -0.42159E-02  1200   0.292E-02-0.222E-04
 gam= 0.218 trial= 0.642  step= 0.601 mean= 0.642
 gam= 0.300 g(H,U,f)=  0.787E-03 0.897E-04 0.376E-17 ort(H,U,f) =-0.195E-03 0.183E-03 0.593E-17
CGA:   5    -0.593616874695E+03   -0.87578E-03   -0.87555E-03  1200   0.876E-03-0.111E-04
 gam= 0.300 trial= 0.640  step= 0.666 mean= 0.640
 gam= 0.295 g(H,U,f)=  0.232E-03 0.262E-04 0.135E-17 ort(H,U,f) =-0.548E-04 0.542E-04 0.318E-17
CGA:   6    -0.593617165598E+03   -0.29090E-03   -0.29091E-03  1200   0.258E-03-0.562E-06
 gam= 0.295 trial= 0.641  step= 0.751 mean= 0.641
 gam= 0.302 g(H,U,f)=  0.737E-04 0.423E-05 0.379E-19 ort(H,U,f) =-0.128E-04 0.124E-04 0.361E-18
CGA:   7    -0.593617262469E+03   -0.96871E-04   -0.96894E-04  1200   0.779E-04-0.414E-06
 gam= 0.302 trial= 0.647  step= 0.694 mean= 0.647
 gam= 0.240 g(H,U,f)=  0.179E-04 0.766E-06 0.517E-19 ort(H,U,f) =-0.175E-05 0.848E-06 0.173E-18
CGA:   8    -0.593617289423E+03   -0.26954E-04   -0.26975E-04  1200   0.187E-04-0.899E-06
 gam= 0.240 trial= 0.649  step= 0.697 mean= 0.649
 gam= 0.207 g(H,U,f)=  0.375E-05 0.114E-06 0.133E-20 ort(H,U,f) =-0.145E-06 0.266E-06 0.151E-19
CGA:   9    -0.593617295867E+03   -0.64436E-05   -0.64405E-05  1200   0.386E-05 0.122E-06
 gam= 0.207 trial= 0.652  step= 0.682 mean= 0.652
 gam= 0.219 g(H,U,f)=  0.806E-06 0.407E-07 0.180E-22 ort(H,U,f) = 0.296E-06 0.387E-07 0.530E-21
CGA:  10    -0.593617297197E+03   -0.13305E-05   -0.13251E-05  1200   0.846E-06 0.335E-06
 gam= 0.219 trial= 0.653  step= 0.753 mean= 0.653
 final diagonalization
  17 F= -.59361730E+03 E0= -.59361730E+03  d E =-.132180E-01
 curvature:  -1.11 expect dE=-0.387E-01 dE for cont linesearch -0.127E-06
 trial: gam= 1.12915 g(F)=  0.328E-01 g(S)=  0.220E-02 ort =-0.153E-03 (trialstep = 0.185E+00)
 search vector abs. value=  0.296E+00
 bond charge predicted
 wavefunctions rotated
       N       E                     dE             d eps       ncg     rms          ort
 gam= 0.000 g(H,U,f)=  0.186E+00 0.823E-02 0.394E-18 ort(H,U,f) = 0.000E+00 0.000E+00 0.000E+00
SDA:   1    -0.593569460268E+03    0.47836E-01    0.00000E+00  1200   0.195E+00 0.000E+00
 gam= 0.000 trial= 0.658  step= 0.433 mean= 0.658
 gam= 0.154 g(H,U,f)=  0.273E-01 0.263E-02 0.461E-19 ort(H,U,f) = 0.419E-02-0.414E-02-0.848E-19
CGA:   2    -0.593611607262E+03   -0.42147E-01   -0.42153E-01  1200   0.299E-01 0.496E-04
 gam= 0.154 trial= 0.647  step= 0.614 mean= 0.647
 gam= 0.157 g(H,U,f)=  0.446E-02 0.240E-03 0.210E-17 ort(H,U,f) = 0.402E-04-0.294E-04 0.195E-18
CGA:   3    -0.593620790116E+03   -0.91829E-02   -0.91830E-02  1200   0.470E-02 0.109E-04
 gam= 0.157 trial= 0.645  step= 0.645 mean= 0.645
 gam= 0.231 g(H,U,f)=  0.994E-03 0.912E-04 0.132E-18 ort(H,U,f) =-0.125E-03 0.117E-03 0.104E-17
CGA:   4    -0.593622306574E+03   -0.15165E-02   -0.15165E-02  1200   0.109E-02-0.777E-05
 gam= 0.231 trial= 0.645  step= 0.611 mean= 0.645
 gam= 0.320 g(H,U,f)=  0.315E-03 0.322E-04 0.199E-18 ort(H,U,f) =-0.733E-04 0.667E-04 0.260E-18
CGA:   5    -0.593622637534E+03   -0.33096E-03   -0.33085E-03  1200   0.347E-03-0.663E-05
 gam= 0.320 trial= 0.644  step= 0.655 mean= 0.644
 gam= 0.279 g(H,U,f)=  0.884E-04 0.847E-05 0.902E-19 ort(H,U,f) =-0.164E-04 0.173E-04 0.200E-18
CGA:   6    -0.593622750543E+03   -0.11301E-03   -0.11300E-03  1200   0.969E-04 0.962E-06
 gam= 0.279 trial= 0.644  step= 0.727 mean= 0.644
 gam= 0.291 g(H,U,f)=  0.265E-04 0.169E-05 0.119E-20 ort(H,U,f) =-0.417E-05 0.426E-05 0.175E-19
CGA:   7    -0.593622785847E+03   -0.35305E-04   -0.35300E-04  1200   0.282E-04 0.948E-07
 gam= 0.291 trial= 0.648  step= 0.697 mean= 0.648
 gam= 0.248 g(H,U,f)=  0.663E-05 0.351E-06 0.868E-20 ort(H,U,f) =-0.116E-05 0.422E-06 0.178E-19
CGA:   8    -0.593622795644E+03   -0.97969E-05   -0.98149E-05  1200   0.698E-05-0.737E-06
 gam= 0.248 trial= 0.651  step= 0.714 mean= 0.651
 gam= 0.214 g(H,U,f)=  0.146E-05 0.396E-07 0.203E-21 ort(H,U,f) =-0.126E-06 0.103E-06 0.207E-20
CGA:   9    -0.593622798068E+03   -0.24240E-05   -0.24247E-05  1200   0.149E-05-0.229E-07
 gam= 0.214 trial= 0.654  step= 0.645 mean= 0.654
 final diagonalization
  18 F= -.59362280E+03 E0= -.59362280E+03  d E =-.550087E-02
 trial-energy change:   -0.005501  1 .order   -0.005486   -0.006457   -0.004515
 step:   0.6163(harm=  0.6163)  dis= 0.02604  next Energy=  -593.628029 (dE=-0.107E-01)
 bond charge predicted
 wavefunctions rotated
       N       E                     dE             d eps       ncg     rms          ort
 gam= 0.000 g(H,U,f)=  0.101E+01 0.444E-01 0.294E-17 ort(H,U,f) = 0.000E+00 0.000E+00 0.000E+00
SDA:   1    -0.593339940259E+03    0.28286E+00    0.00000E+00  1200   0.105E+01 0.000E+00
 gam= 0.000 trial= 0.653  step= 0.433 mean= 0.653
 gam= 0.154 g(H,U,f)=  0.147E+00 0.143E-01 0.522E-17 ort(H,U,f) = 0.226E-01-0.224E-01-0.729E-17
CGA:   2    -0.593567595061E+03   -0.22765E+00   -0.22769E+00  1200   0.162E+00 0.145E-03
 gam= 0.154 trial= 0.642  step= 0.614 mean= 0.642
 gam= 0.158 g(H,U,f)=  0.241E-01 0.133E-02 0.286E-16 ort(H,U,f) = 0.170E-03-0.157E-03 0.660E-17
CGA:   3    -0.593617190169E+03   -0.49595E-01   -0.49595E-01  1200   0.255E-01 0.126E-04
 gam= 0.158 trial= 0.641  step= 0.644 mean= 0.641
 gam= 0.230 g(H,U,f)=  0.535E-02 0.499E-03 0.564E-18 ort(H,U,f) =-0.663E-03 0.641E-03 0.377E-17
CGA:   4    -0.593625385717E+03   -0.81955E-02   -0.81956E-02  1200   0.585E-02-0.216E-04
 gam= 0.230 trial= 0.641  step= 0.610 mean= 0.641
 gam= 0.318 g(H,U,f)=  0.169E-02 0.176E-03 0.338E-17 ort(H,U,f) =-0.379E-03 0.364E-03 0.460E-17
CGA:   5    -0.593627168731E+03   -0.17830E-02   -0.17828E-02  1200   0.186E-02-0.145E-04
 gam= 0.318 trial= 0.640  step= 0.658 mean= 0.640
 gam= 0.282 g(H,U,f)=  0.478E-03 0.465E-04 0.162E-17 ort(H,U,f) =-0.921E-04 0.945E-04 0.365E-17
CGA:   6    -0.593627780418E+03   -0.61169E-03   -0.61166E-03  1200   0.525E-03 0.243E-05
 gam= 0.282 trial= 0.640  step= 0.726 mean= 0.640
 gam= 0.289 g(H,U,f)=  0.143E-03 0.917E-05 0.313E-19 ort(H,U,f) =-0.230E-04 0.229E-04 0.394E-18
CGA:   7    -0.593627971144E+03   -0.19073E-03   -0.19073E-03  1200   0.152E-03-0.414E-07
 gam= 0.289 trial= 0.645  step= 0.686 mean= 0.645
 gam= 0.240 g(H,U,f)=  0.345E-04 0.189E-05 0.155E-18 ort(H,U,f) =-0.402E-05 0.241E-05 0.351E-18
CGA:   8    -0.593628023230E+03   -0.52086E-04   -0.52120E-04  1200   0.364E-04-0.162E-05
 gam= 0.240 trial= 0.647  step= 0.719 mean= 0.647
 gam= 0.220 g(H,U,f)=  0.777E-05 0.226E-06 0.587E-20 ort(H,U,f) =-0.586E-06 0.610E-06 0.490E-19
CGA:   9    -0.593628036185E+03   -0.12955E-04   -0.12954E-04  1200   0.799E-05 0.245E-07
 gam= 0.220 trial= 0.650  step= 0.702 mean= 0.650
 gam= 0.224 g(H,U,f)=  0.169E-05 0.977E-07 0.165E-21 ort(H,U,f) = 0.372E-06 0.941E-07 0.297E-20
CGA:  10    -0.593628039005E+03   -0.28199E-05   -0.28076E-05  1200   0.179E-05 0.467E-06
 gam= 0.224 trial= 0.653  step= 0.787 mean= 0.653
 final diagonalization
  19 F= -.59362804E+03 E0= -.59362804E+03  d E =-.107418E-01
 curvature:  -2.62 expect dE=-0.204E+00 dE for cont linesearch -0.766E-06
 trial: gam= 1.89523 g(F)=  0.757E-01 g(S)=  0.245E-02 ort =-0.294E-03 (trialstep = 0.705E-01)
 search vector abs. value=  0.114E+01
 bond charge predicted
 wavefunctions rotated
       N       E                     dE             d eps       ncg     rms          ort
 gam= 0.000 g(H,U,f)=  0.976E-01 0.439E-02 0.101E-16 ort(H,U,f) = 0.000E+00 0.000E+00 0.000E+00
SDA:   1    -0.593605597915E+03    0.22438E-01    0.00000E+00  1200   0.102E+00 0.000E+00
 gam= 0.000 trial= 0.660  step= 0.432 mean= 0.660
 gam= 0.146 g(H,U,f)=  0.136E-01 0.132E-02 0.158E-18 ort(H,U,f) = 0.217E-02-0.215E-02-0.972E-18
CGA:   2    -0.593627603469E+03   -0.22006E-01   -0.22009E-01  1200   0.149E-01 0.263E-04
 gam= 0.146 trial= 0.648  step= 0.609 mean= 0.648
 gam= 0.153 g(H,U,f)=  0.215E-02 0.135E-03 0.811E-17 ort(H,U,f) = 0.290E-04-0.210E-04 0.112E-18
CGA:   3    -0.593632155641E+03   -0.45522E-02   -0.45523E-02  1200   0.228E-02 0.803E-05
 gam= 0.153 trial= 0.646  step= 0.665 mean= 0.646
 gam= 0.221 g(H,U,f)=  0.454E-03 0.505E-04 0.169E-20 ort(H,U,f) =-0.615E-04 0.586E-04 0.115E-18
CGA:   4    -0.593632915048E+03   -0.75941E-03   -0.75943E-03  1200   0.504E-03-0.286E-05
 gam= 0.221 trial= 0.647  step= 0.660 mean= 0.647
 gam= 0.330 g(H,U,f)=  0.152E-03 0.145E-04 0.932E-18 ort(H,U,f) =-0.331E-04 0.302E-04 0.692E-18
CGA:   5    -0.593633081219E+03   -0.16617E-03   -0.16619E-03  1200   0.167E-03-0.290E-05
 gam= 0.330 trial= 0.648  step= 0.653 mean= 0.648
 gam= 0.285 g(H,U,f)=  0.438E-04 0.371E-05 0.114E-18 ort(H,U,f) =-0.787E-05 0.909E-05 0.414E-18
CGA:   6    -0.593633135327E+03   -0.54108E-04   -0.54105E-04  1200   0.475E-04 0.122E-05
 gam= 0.285 trial= 0.648  step= 0.716 mean= 0.648
 gam= 0.279 g(H,U,f)=  0.125E-04 0.774E-06 0.464E-20 ort(H,U,f) =-0.179E-05 0.175E-05-0.481E-19
CGA:   7    -0.593633152457E+03   -0.17130E-04   -0.17131E-04  1200   0.133E-04-0.426E-07
 gam= 0.279 trial= 0.652  step= 0.692 mean= 0.652
 gam= 0.252 g(H,U,f)=  0.313E-05 0.221E-06 0.273E-19 ort(H,U,f) =-0.675E-06 0.168E-06 0.219E-19
CGA:   8    -0.593633157039E+03   -0.45824E-05   -0.45925E-05  1200   0.335E-05-0.507E-06
 gam= 0.252 trial= 0.654  step= 0.716 mean= 0.654
 final diagonalization
  20 F= -.59363316E+03 E0= -.59363316E+03  d E =-.511803E-02
 ZBRENT: can't locate minimum, use default step
 trial-energy change:   -0.005118  1 .order   -0.005122   -0.005471   -0.004774
 step:   0.2820(harm=  0.5539)  dis= 0.02344  next Energy=  -593.649529 (dE=-0.215E-01)
 bond charge predicted
 wavefunctions rotated
       N       E                     dE             d eps       ncg     rms          ort
 gam= 0.000 g(H,U,f)=  0.878E+00 0.395E-01 0.228E-15 ort(H,U,f) = 0.000E+00 0.000E+00 0.000E+00
SDA:   1    -0.593396008179E+03    0.23714E+00    0.00000E+00  1200   0.918E+00 0.000E+00
 gam= 0.000 trial= 0.657  step= 0.432 mean= 0.657
 gam= 0.146 g(H,U,f)=  0.122E+00 0.120E-01 0.209E-16 ort(H,U,f) = 0.195E-01-0.193E-01-0.660E-16
CGA:   2    -0.593594182894E+03   -0.19817E+00   -0.19820E+00  1200   0.134E+00 0.117E-03
 gam= 0.146 trial= 0.645  step= 0.610 mean= 0.645
 gam= 0.153 g(H,U,f)=  0.193E-01 0.124E-02 0.264E-15 ort(H,U,f) = 0.204E-03-0.195E-03 0.582E-16
CGA:   3    -0.593635158146E+03   -0.40975E-01   -0.40975E-01  1200   0.206E-01 0.958E-05
 gam= 0.153 trial= 0.644  step= 0.664 mean= 0.644
 gam= 0.220 g(H,U,f)=  0.407E-02 0.462E-03 0.112E-17 ort(H,U,f) =-0.543E-03 0.531E-03 0.162E-16
CGA:   4    -0.593641997939E+03   -0.68398E-02   -0.68399E-02  1200   0.453E-02-0.117E-04
 gam= 0.220 trial= 0.645  step= 0.659 mean= 0.645
 gam= 0.329 g(H,U,f)=  0.136E-02 0.132E-03 0.362E-16 ort(H,U,f) =-0.282E-03 0.275E-03 0.329E-16
CGA:   5    -0.593643489609E+03   -0.14917E-02   -0.14917E-02  1200   0.149E-02-0.756E-05
 gam= 0.329 trial= 0.645  step= 0.658 mean= 0.645
 gam= 0.290 g(H,U,f)=  0.398E-03 0.336E-04 0.524E-17 ort(H,U,f) =-0.787E-04 0.826E-04 0.184E-16
CGA:   6    -0.593643978808E+03   -0.48920E-03   -0.48917E-03  1200   0.432E-03 0.393E-05
 gam= 0.290 trial= 0.646  step= 0.709 mean= 0.646
 gam= 0.276 g(H,U,f)=  0.112E-03 0.692E-05 0.332E-19 ort(H,U,f) =-0.161E-04 0.158E-04-0.881E-18
CGA:   7    -0.593644132378E+03   -0.15357E-03   -0.15358E-03  1200   0.119E-03-0.338E-06
 gam= 0.276 trial= 0.649  step= 0.675 mean= 0.649
 gam= 0.239 g(H,U,f)=  0.266E-04 0.190E-05 0.940E-18 ort(H,U,f) =-0.312E-05 0.176E-05 0.118E-17
CGA:   8    -0.593644172641E+03   -0.40263E-04   -0.40281E-04  1200   0.285E-04-0.136E-05
 gam= 0.239 trial= 0.651  step= 0.721 mean= 0.651
 gam= 0.225 g(H,U,f)=  0.623E-05 0.177E-06 0.243E-21 ort(H,U,f) =-0.504E-06 0.398E-06 0.203E-19
CGA:   9    -0.593644182790E+03   -0.10149E-04   -0.10153E-04  1200   0.641E-05-0.106E-06
 gam= 0.225 trial= 0.654  step= 0.711 mean= 0.654
 gam= 0.230 g(H,U,f)=  0.138E-05 0.961E-07 0.110E-22 ort(H,U,f) = 0.200E-06 0.935E-07-0.107E-20
CGA:  10    -0.593644185070E+03   -0.22798E-05   -0.22715E-05  1200   0.147E-05 0.293E-06
 gam= 0.230 trial= 0.657  step= 0.809 mean= 0.657
 final diagonalization
  21 F= -.59364419E+03 E0= -.59364419E+03  d E =-.161461E-01
 curvature:  -2.78 expect dE=-0.869E-01 dE for cont linesearch -0.325E-02
 ZBRENT: increasing intervall
 opt :   0.7050  next Energy=  -593.646405 (dE=-0.184E-01)
 bond charge predicted
 wavefunctions rotated
       N       E                     dE             d eps       ncg     rms          ort
 gam= 0.000 g(H,U,f)=  0.351E+01 0.157E+00 0.493E-14 ort(H,U,f) = 0.000E+00 0.000E+00 0.000E+00
SDA:   1    -0.592653111343E+03    0.99107E+00    0.00000E+00  1200   0.367E+01 0.000E+00
 gam= 0.000 trial= 0.665  step= 0.432 mean= 0.665
 gam= 0.146 g(H,U,f)=  0.489E+00 0.483E-01 0.432E-14 ort(H,U,f) = 0.778E-01-0.773E-01-0.100E-13
CGA:   2    -0.593445644506E+03   -0.79253E+00   -0.79280E+00  1200   0.537E+00 0.537E-03
 gam= 0.146 trial= 0.653  step= 0.609 mean= 0.653
 gam= 0.154 g(H,U,f)=  0.774E-01 0.517E-02 0.874E-14 ort(H,U,f) = 0.764E-03-0.716E-03 0.371E-14
CGA:   3    -0.593609330330E+03   -0.16369E+00   -0.16369E+00  1200   0.826E-01 0.481E-04
 gam= 0.154 trial= 0.651  step= 0.663 mean= 0.651
 gam= 0.221 g(H,U,f)=  0.163E-01 0.190E-02 0.932E-16 ort(H,U,f) =-0.220E-02 0.218E-02 0.768E-15
CGA:   4    -0.593636719660E+03   -0.27389E-01   -0.27389E-01  1200   0.182E-01-0.231E-04
 gam= 0.221 trial= 0.651  step= 0.657 mean= 0.651
 gam= 0.327 g(H,U,f)=  0.542E-02 0.545E-03 0.202E-30 ort(H,U,f) =-0.114E-02 0.113E-02 0.216E-30
CGA:   5    -0.593642714154E+03   -0.59945E-02   -0.59945E-02  1200   0.597E-02-0.970E-05
 gam= 0.327 trial= 0.652  step= 0.661 mean= 0.652
 gam= 0.291 g(H,U,f)=  0.160E-02 0.139E-03 0.431E-31 ort(H,U,f) =-0.331E-03 0.340E-03 0.143E-30
CGA:   6    -0.593644683533E+03   -0.19694E-02   -0.19693E-02  1200   0.173E-02 0.878E-05
 gam= 0.291 trial= 0.652  step= 0.708 mean= 0.652
 gam= 0.275 g(H,U,f)=  0.449E-03 0.284E-04 0.449E-69 ort(H,U,f) =-0.644E-04 0.634E-04 0.000E+00
CGA:   7    -0.593645298485E+03   -0.61495E-03   -0.61498E-03  1200   0.478E-03-0.959E-06
 gam= 0.275 trial= 0.655  step= 0.672 mean= 0.655
 gam= 0.235 g(H,U,f)=  0.105E-03 0.774E-05 0.937E-32 ort(H,U,f) =-0.967E-05 0.731E-05 0.163E-31
CGA:   8    -0.593645458951E+03   -0.16047E-03   -0.16049E-03  1200   0.112E-03-0.237E-05
 gam= 0.235 trial= 0.656  step= 0.723 mean= 0.656
 gam= 0.227 g(H,U,f)=  0.248E-04 0.736E-06 0.796E-70 ort(H,U,f) =-0.172E-05 0.173E-05 0.000E+00
CGA:   9    -0.593645499364E+03   -0.40413E-04   -0.40412E-04  1200   0.256E-04 0.185E-07
 gam= 0.227 trial= 0.659  step= 0.734 mean= 0.659
 gam= 0.241 g(H,U,f)=  0.576E-05 0.403E-06 0.343E-70 ort(H,U,f) = 0.780E-07 0.386E-06 0.000E+00
CGA:  10    -0.593645508760E+03   -0.93963E-05   -0.93791E-05  1200   0.616E-05 0.464E-06
 gam= 0.241 trial= 0.663  step= 0.803 mean= 0.663
 gam= 0.250 g(H,U,f)=  0.149E-05 0.478E-07 0.128E-70 ort(H,U,f) =-0.172E-06 0.585E-08 0.000E+00
CGA:  11    -0.593645511268E+03   -0.25075E-05   -0.25196E-05  1200   0.154E-05-0.167E-06
 gam= 0.250 trial= 0.670  step= 0.892 mean= 0.670
 final diagonalization
  22 F= -.59364551E+03 E0= -.59364551E+03  d E =-.174723E-01
 curvature:  -1.90 expect dE=-0.136E+00 dE for cont linesearch -0.168E-02
 ZBRENT: bracketing found
 ZBRENT: interpolating
 opt :   0.5083  next Energy=  -593.648630 (dE=-0.206E-01)
 bond charge predicted
 wavefunctions rotated
       N       E                     dE             d eps       ncg     rms          ort
 gam= 0.000 g(H,U,f)=  0.762E+00 0.343E-01 0.190E-29 ort(H,U,f) = 0.000E+00 0.000E+00 0.000E+00
SDA:   1    -0.593433267397E+03    0.21224E+00    0.00000E+00  1200   0.796E+00 0.000E+00
 gam= 0.000 trial= 0.681  step= 0.432 mean= 0.681
 gam= 0.146 g(H,U,f)=  0.106E+00 0.103E-01-0.374E-73 ort(H,U,f) = 0.167E-01-0.167E-01 0.000E+00
CGA:   2    -0.593605210525E+03   -0.17194E+00   -0.17195E+00  1200   0.116E+00-0.355E-04
 gam= 0.146 trial= 0.669  step= 0.609 mean= 0.669
 gam= 0.153 g(H,U,f)=  0.168E-01 0.107E-02-0.417E-30 ort(H,U,f) = 0.163E-03-0.203E-03 0.320E-30
CGA:   3    -0.593640663431E+03   -0.35453E-01   -0.35452E-01  1200   0.178E-01-0.403E-04
 gam= 0.153 trial= 0.666  step= 0.664 mean= 0.666
 gam= 0.219 g(H,U,f)=  0.352E-02 0.397E-03-0.275E-31 ort(H,U,f) =-0.451E-03 0.452E-03 0.985E-31
CGA:   4    -0.593646578214E+03   -0.59148E-02   -0.59148E-02  1200   0.391E-02 0.117E-05
 gam= 0.219 trial= 0.665  step= 0.654 mean= 0.665
 gam= 0.326 g(H,U,f)=  0.116E-02 0.115E-03-0.184E-31 ort(H,U,f) =-0.229E-03 0.238E-03 0.386E-32
CGA:   5    -0.593647858932E+03   -0.12807E-02   -0.12808E-02  1200   0.128E-02 0.898E-05
 gam= 0.326 trial= 0.665  step= 0.665 mean= 0.665
 gam= 0.294 g(H,U,f)=  0.347E-03 0.290E-04 0.442E-33 ort(H,U,f) =-0.740E-04 0.707E-04 0.198E-32
CGA:   6    -0.593648284608E+03   -0.42568E-03   -0.42568E-03  1200   0.376E-03-0.332E-05
 gam= 0.294 trial= 0.665  step= 0.708 mean= 0.665
 gam= 0.273 g(H,U,f)=  0.967E-04 0.596E-05-0.782E-72 ort(H,U,f) =-0.140E-04 0.134E-04 0.000E+00
CGA:   7    -0.593648417254E+03   -0.13265E-03   -0.13266E-03  1200   0.103E-03-0.521E-06
 gam= 0.273 trial= 0.667  step= 0.659 mean= 0.667
 gam= 0.228 g(H,U,f)=  0.218E-04 0.159E-05 0.361E-33 ort(H,U,f) =-0.134E-06 0.165E-05-0.245E-33
CGA:   8    -0.593648451035E+03   -0.33781E-04   -0.33786E-04  1200   0.234E-04 0.152E-05
 gam= 0.228 trial= 0.667  step= 0.718 mean= 0.667
 gam= 0.229 g(H,U,f)=  0.521E-05 0.163E-06 0.146E-72 ort(H,U,f) =-0.307E-07 0.441E-06 0.000E+00
CGA:   9    -0.593648459582E+03   -0.85471E-05   -0.85364E-05  1200   0.537E-05 0.410E-06
 gam= 0.229 trial= 0.669  step= 0.813 mean= 0.669
 gam= 0.295 g(H,U,f)=  0.150E-05 0.834E-07 0.111E-72 ort(H,U,f) =-0.501E-06 0.731E-07 0.000E+00
CGA:  10    -0.593648461774E+03   -0.21923E-05   -0.22234E-05  1200   0.159E-05-0.428E-06
 gam= 0.295 trial= 0.676  step= 0.728 mean= 0.676
 final diagonalization
  23 F= -.59364846E+03 E0= -.59364846E+03  d E =-.204228E-01
 curvature:  -3.53 expect dE=-0.128E+00 dE for cont linesearch -0.304E-05
 trial: gam= 0.33661 g(F)=  0.338E-01 g(S)=  0.234E-02 ort = 0.990E-03 (trialstep = 0.158E+00)
 search vector abs. value=  0.166E+00
 bond charge predicted
 wavefunctions rotated
       N       E                     dE             d eps       ncg     rms          ort
 gam= 0.000 g(H,U,f)=  0.848E-01 0.238E-02 0.299E-30 ort(H,U,f) = 0.000E+00 0.000E+00 0.000E+00
SDA:   1    -0.593623988484E+03    0.24471E-01    0.00000E+00  1200   0.872E-01 0.000E+00
 gam= 0.000 trial= 0.679  step= 0.500 mean= 0.679
 gam= 0.214 g(H,U,f)=  0.172E-01 0.137E-02 0.252E-33 ort(H,U,f) = 0.161E-02-0.165E-02-0.884E-32
CGA:   2    -0.593645787819E+03   -0.21799E-01   -0.21796E-01  1200   0.186E-01-0.350E-04
 gam= 0.214 trial= 0.670  step= 0.599 mean= 0.670
 gam= 0.159 g(H,U,f)=  0.284E-02 0.123E-03 0.922E-71 ort(H,U,f) = 0.857E-04-0.895E-04 0.000E+00
CGA:   3    -0.593651360864E+03   -0.55730E-02   -0.55729E-02  1200   0.296E-02-0.385E-05
 gam= 0.159 trial= 0.667  step= 0.597 mean= 0.667
 gam= 0.187 g(H,U,f)=  0.521E-03 0.317E-04-0.127E-71 ort(H,U,f) =-0.351E-04 0.404E-04 0.000E+00
CGA:   4    -0.593652245177E+03   -0.88431E-03   -0.88450E-03  1200   0.553E-03 0.529E-05
 gam= 0.187 trial= 0.663  step= 0.568 mean= 0.663
 gam= 0.265 g(H,U,f)=  0.131E-03 0.150E-04-0.900E-74 ort(H,U,f) =-0.241E-04 0.250E-04 0.000E+00
CGA:   5    -0.593652402545E+03   -0.15737E-03   -0.15741E-03  1200   0.146E-03 0.849E-06
 gam= 0.265 trial= 0.658  step= 0.657 mean= 0.658
 gam= 0.292 g(H,U,f)=  0.387E-04 0.400E-05 0.142E-72 ort(H,U,f) =-0.823E-05 0.767E-05 0.000E+00
CGA:   6    -0.593652450700E+03   -0.48155E-04   -0.48155E-04  1200   0.427E-04-0.559E-06
 gam= 0.292 trial= 0.658  step= 0.757 mean= 0.658
 gam= 0.316 g(H,U,f)=  0.126E-04 0.938E-06-0.286E-72 ort(H,U,f) =-0.166E-05 0.226E-05 0.000E+00
CGA:   7    -0.593652466823E+03   -0.16124E-04   -0.16094E-04  1200   0.135E-04 0.595E-06
 gam= 0.316 trial= 0.663  step= 0.691 mean= 0.663
 gam= 0.237 g(H,U,f)=  0.304E-05 0.155E-06 0.177E-35 ort(H,U,f) =-0.364E-07 0.324E-06-0.747E-34
CGA:   8    -0.593652471558E+03   -0.47348E-05   -0.47310E-05  1200   0.320E-05 0.288E-06
 gam= 0.237 trial= 0.665  step= 0.740 mean= 0.665
 final diagonalization
  24 F= -.59365247E+03 E0= -.59365247E+03  d E =-.400978E-02
 trial-energy change:   -0.004010  1 .order   -0.004008   -0.005771   -0.002246
 step:   0.2587(harm=  0.2587)  dis= 0.00757  next Energy=  -593.653185 (dE=-0.472E-02)
 bond charge predicted
 wavefunctions rotated
       N       E                     dE             d eps       ncg     rms          ort
 gam= 0.000 g(H,U,f)=  0.344E-01 0.966E-03-0.269E-30 ort(H,U,f) = 0.000E+00 0.000E+00 0.000E+00
SDA:   1    -0.593641630832E+03    0.10836E-01    0.00000E+00  1200   0.353E-01 0.000E+00
 gam= 0.000 trial= 0.668  step= 0.501 mean= 0.668
 gam= 0.214 g(H,U,f)=  0.699E-02 0.555E-03-0.673E-35 ort(H,U,f) = 0.643E-03-0.666E-03 0.102E-32
CGA:   2    -0.593650477085E+03   -0.88463E-02   -0.88443E-02  1200   0.755E-02-0.236E-04
 gam= 0.214 trial= 0.660  step= 0.599 mean= 0.660
 gam= 0.159 g(H,U,f)=  0.115E-02 0.501E-04 0.449E-34 ort(H,U,f) = 0.348E-04-0.369E-04 0.576E-33
CGA:   3    -0.593652735482E+03   -0.22584E-02   -0.22583E-02  1200   0.120E-02-0.207E-05
 gam= 0.159 trial= 0.657  step= 0.599 mean= 0.657
 gam= 0.183 g(H,U,f)=  0.207E-03 0.129E-04 0.243E-32 ort(H,U,f) =-0.126E-04 0.162E-04 0.103E-32
CGA:   4    -0.593653093655E+03   -0.35817E-03   -0.35828E-03  1200   0.220E-03 0.355E-05
 gam= 0.183 trial= 0.654  step= 0.574 mean= 0.654
 gam= 0.267 g(H,U,f)=  0.527E-04 0.596E-05-0.159E-74 ort(H,U,f) =-0.948E-05 0.999E-05 0.000E+00
CGA:   5    -0.593653156902E+03   -0.63247E-04   -0.63267E-04  1200   0.587E-04 0.511E-06
 gam= 0.267 trial= 0.650  step= 0.661 mean= 0.650
 gam= 0.298 g(H,U,f)=  0.159E-04 0.158E-05 0.177E-73 ort(H,U,f) =-0.343E-05 0.306E-05 0.000E+00
CGA:   6    -0.593653176352E+03   -0.19450E-04   -0.19452E-04  1200   0.175E-04-0.369E-06
 gam= 0.298 trial= 0.651  step= 0.749 mean= 0.651
 gam= 0.310 g(H,U,f)=  0.506E-05 0.364E-06-0.540E-33 ort(H,U,f) =-0.502E-06 0.901E-06-0.472E-33
CGA:   7    -0.593653182878E+03   -0.65256E-05   -0.65058E-05  1200   0.542E-05 0.399E-06
 gam= 0.310 trial= 0.656  step= 0.688 mean= 0.656
 gam= 0.236 g(H,U,f)=  0.122E-05 0.618E-07 0.184E-36 ort(H,U,f) = 0.457E-07 0.132E-06-0.108E-34
CGA:   8    -0.593653184787E+03   -0.19098E-05   -0.19068E-05  1200   0.128E-05 0.177E-06
 gam= 0.236 trial= 0.657  step= 0.768 mean= 0.657
 final diagonalization
  25 F= -.59365318E+03 E0= -.59365318E+03  d E =-.472301E-02
 curvature:  -0.59 expect dE=-0.669E-02 dE for cont linesearch -0.537E-08
 trial: gam= 0.31903 g(F)=  0.954E-02 g(S)=  0.183E-02 ort =-0.389E-04 (trialstep = 0.178E+00)
 search vector abs. value=  0.282E-01
 bond charge predicted
 wavefunctions rotated
       N       E                     dE             d eps       ncg     rms          ort
 gam= 0.000 g(H,U,f)=  0.109E-01 0.316E-03-0.534E-32 ort(H,U,f) = 0.000E+00 0.000E+00 0.000E+00
SDA:   1    -0.593651423913E+03    0.17590E-02    0.00000E+00  1200   0.112E-01 0.000E+00
 gam= 0.000 trial= 0.663  step= 0.502 mean= 0.663
 gam= 0.196 g(H,U,f)=  0.200E-02 0.191E-03-0.575E-70 ort(H,U,f) = 0.126E-03-0.197E-03 0.000E+00
CGA:   2    -0.593654235252E+03   -0.28113E-02   -0.28057E-02  1200   0.219E-02-0.711E-04
 gam= 0.196 trial= 0.655  step= 0.592 mean= 0.655
 gam= 0.189 g(H,U,f)=  0.391E-03 0.215E-04-0.118E-70 ort(H,U,f) =-0.388E-05-0.387E-05 0.000E+00
CGA:   3    -0.593654879626E+03   -0.64437E-03   -0.64413E-03  1200   0.413E-03-0.775E-05
 gam= 0.189 trial= 0.652  step= 0.576 mean= 0.652
 gam= 0.193 g(H,U,f)=  0.734E-04 0.641E-05-0.323E-71 ort(H,U,f) =-0.194E-05 0.101E-04 0.000E+00
CGA:   4    -0.593654997746E+03   -0.11812E-03   -0.11843E-03  1200   0.798E-04 0.814E-05
 gam= 0.193 trial= 0.648  step= 0.563 mean= 0.648
 gam= 0.279 g(H,U,f)=  0.194E-04 0.287E-05-0.200E-71 ort(H,U,f) =-0.282E-05 0.509E-05 0.000E+00
CGA:   5    -0.593655020545E+03   -0.22799E-04   -0.22896E-04  1200   0.222E-04 0.227E-05
 gam= 0.279 trial= 0.643  step= 0.671 mean= 0.643
 gam= 0.308 g(H,U,f)=  0.612E-05 0.730E-06-0.296E-72 ort(H,U,f) =-0.146E-05 0.133E-05 0.000E+00
CGA:   6    -0.593655028221E+03   -0.76760E-05   -0.76778E-05  1200   0.685E-05-0.129E-06
 gam= 0.308 trial= 0.645  step= 0.666 mean= 0.645
 gam= 0.255 g(H,U,f)=  0.160E-05 0.143E-06 0.139E-72 ort(H,U,f) = 0.287E-06 0.483E-06 0.000E+00
CGA:   7    -0.593655030497E+03   -0.22756E-05   -0.22677E-05  1200   0.175E-05 0.769E-06
 gam= 0.255 trial= 0.646  step= 0.595 mean= 0.646
 gam= 0.243 g(H,U,f)=  0.393E-06 0.306E-07 0.436E-33 ort(H,U,f) = 0.315E-06 0.113E-06 0.161E-32
CGA:   8    -0.593655031064E+03   -0.56712E-06   -0.57789E-06  1200   0.423E-06 0.428E-06
 gam= 0.243 trial= 0.643  step= 0.828 mean= 0.643
 final diagonalization
  26 F= -.59365503E+03 E0= -.59365503E+03  d E =-.184628E-02
 ZBRENT: can't locate minimum, use default step
 trial-energy change:   -0.001846  1 .order   -0.001843   -0.002025   -0.001662
 step:   0.7128(harm=  0.9929)  dis= 0.00738  next Energy=  -593.658827 (dE=-0.564E-02)
 bond charge predicted
 wavefunctions rotated
       N       E                     dE             d eps       ncg     rms          ort
 gam= 0.000 g(H,U,f)=  0.978E-01 0.282E-02 0.514E-16 ort(H,U,f) = 0.000E+00 0.000E+00 0.000E+00
SDA:   1    -0.593626069219E+03    0.28961E-01    0.00000E+00  1200   0.101E+00 0.000E+00
 gam= 0.000 trial= 0.653  step= 0.500 mean= 0.653
 gam= 0.194 g(H,U,f)=  0.178E-01 0.170E-02 0.104E-14 ort(H,U,f) = 0.154E-02-0.175E-02-0.157E-15
CGA:   2    -0.593651220631E+03   -0.25151E-01   -0.25137E-01  1200   0.195E-01-0.212E-03
 gam= 0.194 trial= 0.645  step= 0.593 mean= 0.645
 gam= 0.189 g(H,U,f)=  0.351E-02 0.192E-03 0.834E-15 ort(H,U,f) = 0.661E-05-0.328E-04 0.140E-14
CGA:   3    -0.593657007552E+03   -0.57869E-02   -0.57862E-02  1200   0.370E-02-0.262E-04
 gam= 0.189 trial= 0.642  step= 0.585 mean= 0.642
 gam= 0.199 g(H,U,f)=  0.678E-03 0.582E-04 0.312E-15 ort(H,U,f) =-0.654E-04 0.900E-04 0.791E-15
CGA:   4    -0.593658087527E+03   -0.10800E-02   -0.10807E-02  1200   0.736E-03 0.247E-04
 gam= 0.199 trial= 0.640  step= 0.567 mean= 0.640
 gam= 0.280 g(H,U,f)=  0.182E-03 0.248E-04 0.251E-15 ort(H,U,f) =-0.385E-04 0.454E-04 0.468E-15
CGA:   5    -0.593658297399E+03   -0.20987E-03   -0.21012E-03  1200   0.206E-03 0.687E-05
 gam= 0.280 trial= 0.636  step= 0.658 mean= 0.636
 gam= 0.294 g(H,U,f)=  0.542E-04 0.654E-05 0.109E-15 ort(H,U,f) =-0.127E-04 0.121E-04 0.286E-15
CGA:   6    -0.593658365899E+03   -0.68500E-04   -0.68506E-04  1200   0.608E-04-0.548E-06
 gam= 0.294 trial= 0.637  step= 0.721 mean= 0.637
 gam= 0.281 g(H,U,f)=  0.159E-04 0.123E-05 0.283E-16 ort(H,U,f) =-0.137E-05 0.390E-05 0.105E-15
CGA:   7    -0.593658387864E+03   -0.21964E-04   -0.21858E-04  1200   0.171E-04 0.253E-05
 gam= 0.281 trial= 0.641  step= 0.668 mean= 0.641
 gam= 0.236 g(H,U,f)=  0.383E-05 0.190E-06 0.529E-17 ort(H,U,f) = 0.795E-06 0.635E-06 0.261E-16
CGA:   8    -0.593658393826E+03   -0.59623E-05   -0.59434E-05  1200   0.402E-05 0.143E-05
 gam= 0.236 trial= 0.643  step= 0.786 mean= 0.643
 gam= 0.288 g(H,U,f)=  0.111E-05 0.505E-07 0.465E-18 ort(H,U,f) =-0.376E-06 0.113E-06 0.346E-17
CGA:   9    -0.593658395521E+03   -0.16954E-05   -0.17140E-05  1200   0.116E-05-0.263E-06
 gam= 0.288 trial= 0.650  step= 0.725 mean= 0.650
 final diagonalization
  27 F= -.59365840E+03 E0= -.59365840E+03  d E =-.521073E-02
 curvature:  -1.09 expect dE=-0.121E-01 dE for cont linesearch -0.405E-03
 ZBRENT: increasing intervall
 opt :   1.7819  next Energy=  -593.655358 (dE=-0.217E-02)
 bond charge predicted
 wavefunctions rotated
       N       E                     dE             d eps       ncg     rms          ort
 gam= 0.000 g(H,U,f)=  0.391E+00 0.113E-01 0.709E-17 ort(H,U,f) = 0.000E+00 0.000E+00 0.000E+00
SDA:   1    -0.593526224322E+03    0.13217E+00    0.00000E+00  1200   0.402E+00 0.000E+00
 gam= 0.000 trial= 0.653  step= 0.500 mean= 0.653
 gam= 0.194 g(H,U,f)=  0.712E-01 0.680E-02 0.299E-15 ort(H,U,f) = 0.660E-02-0.700E-02-0.405E-16
CGA:   2    -0.593626653940E+03   -0.10043E+00   -0.10041E+00  1200   0.780E-01-0.407E-03
 gam= 0.194 trial= 0.646  step= 0.593 mean= 0.646
 gam= 0.190 g(H,U,f)=  0.141E-01 0.766E-03 0.157E-15 ort(H,U,f) = 0.767E-04-0.136E-03 0.269E-15
CGA:   3    -0.593649775362E+03   -0.23121E-01   -0.23120E-01  1200   0.148E-01-0.588E-04
 gam= 0.190 trial= 0.643  step= 0.586 mean= 0.643
 gam= 0.201 g(H,U,f)=  0.275E-02 0.233E-03 0.834E-16 ort(H,U,f) =-0.310E-03 0.359E-03 0.213E-15
CGA:   4    -0.593654112448E+03   -0.43371E-02   -0.43385E-02  1200   0.298E-02 0.490E-04
 gam= 0.201 trial= 0.640  step= 0.565 mean= 0.640
 gam= 0.280 g(H,U,f)=  0.736E-03 0.989E-04 0.838E-16 ort(H,U,f) =-0.168E-03 0.182E-03 0.157E-15
CGA:   5    -0.593654957674E+03   -0.84523E-03   -0.84574E-03  1200   0.835E-03 0.139E-04
 gam= 0.280 trial= 0.637  step= 0.654 mean= 0.637
 gam= 0.291 g(H,U,f)=  0.217E-03 0.264E-04 0.468E-16 ort(H,U,f) =-0.499E-04 0.489E-04 0.123E-15
CGA:   6    -0.593655231917E+03   -0.27424E-03   -0.27425E-03  1200   0.243E-03-0.978E-06
 gam= 0.291 trial= 0.637  step= 0.737 mean= 0.637
 gam= 0.293 g(H,U,f)=  0.662E-04 0.492E-05 0.135E-16 ort(H,U,f) =-0.102E-04 0.153E-04 0.508E-16
CGA:   7    -0.593655321602E+03   -0.89684E-04   -0.89427E-04  1200   0.711E-04 0.516E-05
 gam= 0.293 trial= 0.642  step= 0.684 mean= 0.642
 gam= 0.241 g(H,U,f)=  0.164E-04 0.729E-06 0.233E-17 ort(H,U,f) = 0.870E-06 0.213E-05 0.128E-16
CGA:   8    -0.593655346507E+03   -0.24906E-04   -0.24843E-04  1200   0.171E-04 0.300E-05
 gam= 0.241 trial= 0.645  step= 0.742 mean= 0.645
 gam= 0.246 g(H,U,f)=  0.404E-05 0.175E-06 0.200E-18 ort(H,U,f) =-0.913E-06 0.390E-06 0.164E-17
CGA:   9    -0.593655353099E+03   -0.65913E-05   -0.66168E-05  1200   0.422E-05-0.524E-06
 gam= 0.246 trial= 0.649  step= 0.751 mean= 0.649
 gam= 0.253 g(H,U,f)=  0.102E-05 0.536E-07 0.351E-19 ort(H,U,f) =-0.183E-06-0.601E-08 0.254E-18
CGA:  10    -0.593655354625E+03   -0.15262E-05   -0.15359E-05  1200   0.107E-05-0.189E-06
 gam= 0.253 trial= 0.654  step= 0.665 mean= 0.654
 final diagonalization
  28 F= -.59365535E+03 E0= -.59365535E+03  d E =-.216984E-02
 curvature:   8.16 expect dE= 0.562E+00 dE for cont linesearch  0.233E-01
 ZBRENT: bracketing found
 ZBRENT: interpolating
 opt :   0.9962  next Energy=  -593.658855 (dE=-0.567E-02)
 bond charge predicted
 wavefunctions rotated
       N       E                     dE             d eps       ncg     rms          ort
 gam= 0.000 g(H,U,f)=  0.212E+00 0.611E-02 0.213E-30 ort(H,U,f) = 0.000E+00 0.000E+00 0.000E+00
SDA:   1    -0.593589182090E+03    0.66171E-01    0.00000E+00  1200   0.218E+00 0.000E+00
 gam= 0.000 trial= 0.655  step= 0.498 mean= 0.655
 gam= 0.192 g(H,U,f)=  0.383E-01 0.358E-02-0.962E-71 ort(H,U,f) = 0.404E-02-0.372E-02 0.000E+00
CGA:   2    -0.593643361253E+03   -0.54179E-01   -0.54199E-01  1200   0.419E-01 0.321E-03
 gam= 0.192 trial= 0.647  step= 0.594 mean= 0.647
 gam= 0.190 g(H,U,f)=  0.756E-02 0.415E-03-0.176E-70 ort(H,U,f) = 0.970E-04-0.656E-04 0.000E+00
CGA:   3    -0.593655821205E+03   -0.12460E-01   -0.12461E-01  1200   0.798E-02 0.314E-04
 gam= 0.190 trial= 0.645  step= 0.591 mean= 0.645
 gam= 0.205 g(H,U,f)=  0.151E-02 0.126E-03-0.647E-71 ort(H,U,f) =-0.231E-03 0.192E-03 0.000E+00
CGA:   4    -0.593658180550E+03   -0.23593E-02   -0.23583E-02  1200   0.163E-02-0.387E-04
 gam= 0.205 trial= 0.642  step= 0.569 mean= 0.642
 gam= 0.281 g(H,U,f)=  0.407E-03 0.517E-04-0.413E-71 ort(H,U,f) =-0.106E-03 0.971E-04 0.000E+00
CGA:   5    -0.593658642550E+03   -0.46200E-03   -0.46166E-03  1200   0.459E-03-0.935E-05
 gam= 0.281 trial= 0.638  step= 0.644 mean= 0.638
 gam= 0.282 g(H,U,f)=  0.116E-03 0.141E-04 0.311E-15 ort(H,U,f) =-0.254E-04 0.267E-04 0.808E-15
CGA:   6    -0.593658789645E+03   -0.14710E-03   -0.14709E-03  1200   0.130E-03 0.130E-05
 gam= 0.282 trial= 0.638  step= 0.778 mean= 0.638
 gam= 0.326 g(H,U,f)=  0.396E-04 0.262E-05 0.484E-16 ort(H,U,f) =-0.117E-04 0.755E-05 0.193E-15
CGA:   7    -0.593658839929E+03   -0.50284E-04   -0.50577E-04  1200   0.422E-04-0.420E-05
 gam= 0.326 trial= 0.645  step= 0.719 mean= 0.645
 gam= 0.258 g(H,U,f)=  0.105E-04 0.402E-06 0.397E-17 ort(H,U,f) =-0.270E-05 0.478E-06 0.301E-16
CGA:   8    -0.593658854541E+03   -0.14611E-04   -0.14693E-04  1200   0.109E-04-0.223E-05
 gam= 0.258 trial= 0.649  step= 0.641 mean= 0.649
 gam= 0.184 g(H,U,f)=  0.194E-05 0.690E-07 0.222E-18 ort(H,U,f) = 0.396E-06 0.111E-06 0.274E-17
CGA:   9    -0.593658857843E+03   -0.33024E-05   -0.33041E-05  1200   0.201E-05 0.507E-06
 gam= 0.184 trial= 0.649  step= 0.664 mean= 0.649
 final diagonalization
  29 F= -.59365886E+03 E0= -.59365886E+03  d E =-.567306E-02
 curvature:  -0.16 expect dE=-0.318E-02 dE for cont linesearch -0.169E-08
 trial: gam= 1.71702 g(F)=  0.194E-01 g(S)=  0.409E-03 ort =-0.172E-04 (trialstep = 0.937E-01)
 search vector abs. value=  0.103E+00
 bond charge predicted
 wavefunctions rotated
       N       E                     dE             d eps       ncg     rms          ort
 gam= 0.000 g(H,U,f)=  0.113E-01 0.303E-03 0.140E-17 ort(H,U,f) = 0.000E+00 0.000E+00 0.000E+00
SDA:   1    -0.593656617500E+03    0.22370E-02    0.00000E+00  1200   0.116E-01 0.000E+00
 gam= 0.000 trial= 0.650  step= 0.516 mean= 0.650
 gam= 0.206 g(H,U,f)=  0.224E-02 0.163E-03 0.346E-15 ort(H,U,f) = 0.104E-03-0.175E-03-0.205E-16
CGA:   2    -0.593659618559E+03   -0.30011E-02   -0.29964E-02  1200   0.240E-02-0.706E-04
 gam= 0.206 trial= 0.643  step= 0.572 mean= 0.643
 gam= 0.203 g(H,U,f)=  0.462E-03 0.257E-04 0.149E-15 ort(H,U,f) =-0.598E-05 0.288E-05 0.244E-15
CGA:   3    -0.593660300677E+03   -0.68212E-03   -0.68200E-03  1200   0.488E-03-0.310E-05
 gam= 0.203 trial= 0.639  step= 0.542 mean= 0.639
 gam= 0.200 g(H,U,f)=  0.912E-04 0.633E-05 0.379E-16 ort(H,U,f) =-0.278E-05 0.113E-04 0.106E-15
CGA:   4    -0.593660432305E+03   -0.13163E-03   -0.13204E-03  1200   0.975E-04 0.856E-05
 gam= 0.200 trial= 0.634  step= 0.556 mean= 0.634
 gam= 0.249 g(H,U,f)=  0.208E-04 0.355E-05 0.275E-16 ort(H,U,f) =-0.245E-05 0.564E-05 0.511E-16
CGA:   5    -0.593660459779E+03   -0.27474E-04   -0.27599E-04  1200   0.243E-04 0.318E-05
 gam= 0.249 trial= 0.631  step= 0.677 mean= 0.631
 gam= 0.305 g(H,U,f)=  0.648E-05 0.932E-06 0.111E-16 ort(H,U,f) =-0.171E-05 0.183E-05 0.263E-16
CGA:   6    -0.593660468273E+03   -0.84936E-05   -0.84912E-05  1200   0.741E-05 0.119E-06
 gam= 0.305 trial= 0.633  step= 0.672 mean= 0.633
 gam= 0.271 g(H,U,f)=  0.181E-05 0.193E-06 0.277E-17 ort(H,U,f) = 0.744E-07 0.620E-06 0.971E-17
CGA:   7    -0.593660470791E+03   -0.25181E-05   -0.25046E-05  1200   0.201E-05 0.695E-06
[...]
 gam= 0.220 trial= 0.622  step= 0.666 mean= 0.622
 gam= 0.277 g(H,U,f)=  0.224E-05 0.308E-06 0.354E-23 ort(H,U,f) =-0.585E-06 0.776E-06 0.788E-23
CGA:   6    -0.593788753179E+03   -0.30343E-05   -0.30307E-05  1200   0.254E-05 0.192E-06
 gam= 0.277 trial= 0.624  step= 0.810 mean= 0.624
 gam= 0.384 g(H,U,f)=  0.916E-06 0.603E-07 0.402E-24 ort(H,U,f) =-0.391E-06 0.201E-06 0.191E-23
CGA:   7    -0.593788754213E+03   -0.10338E-05   -0.10516E-05  1200   0.976E-06-0.190E-06
 gam= 0.384 trial= 0.633  step= 0.773 mean= 0.633
 gam= 0.278 g(H,U,f)=  0.267E-06 0.464E-08 0.555E-26 ort(H,U,f) =-0.129E-06 0.105E-07 0.133E-24
CGA:   8    -0.593788754554E+03   -0.34141E-06   -0.34917E-06  1200   0.271E-06-0.119E-06
 gam= 0.278 trial= 0.640  step= 0.587 mean= 0.640
 final diagonalization
 229 F= -.59378875E+03 E0= -.59378875E+03  d E =-.514654E-04
 trial-energy change:   -0.000051  1 .order   -0.000052   -0.000077   -0.000027
 step:   0.5133(harm=  0.5133)  dis= 0.00110  next Energy=  -593.788763 (dE=-0.598E-04)
 bond charge predicted
 wavefunctions rotated
       N       E                     dE             d eps       ncg     rms          ort
 gam= 0.000 g(H,U,f)=  0.148E-02 0.191E-04 0.176E-22 ort(H,U,f) = 0.000E+00 0.000E+00 0.000E+00
SDA:   1    -0.593788206180E+03    0.54803E-03    0.00000E+00  1200   0.150E-02 0.000E+00
 gam= 0.000 trial= 0.637  step= 0.579 mean= 0.637
 gam= 0.238 g(H,U,f)=  0.349E-03 0.796E-05 0.105E-21 ort(H,U,f) = 0.184E-04-0.100E-04-0.443E-22
CGA:   2    -0.593788640234E+03   -0.43405E-03   -0.43430E-03  1200   0.357E-03 0.834E-05
 gam= 0.238 trial= 0.635  step= 0.558 mean= 0.635
 gam= 0.177 g(H,U,f)=  0.615E-04 0.175E-05 0.213E-22 ort(H,U,f) =-0.118E-05 0.459E-06 0.414E-22
CGA:   3    -0.593788740342E+03   -0.10011E-03   -0.10008E-03  1200   0.632E-04-0.717E-06
 gam= 0.177 trial= 0.631  step= 0.522 mean= 0.631
 gam= 0.205 g(H,U,f)=  0.122E-04 0.760E-06 0.324E-23 ort(H,U,f) =-0.218E-05 0.104E-05 0.110E-22
CGA:   4    -0.593788756871E+03   -0.16529E-04   -0.16467E-04  1200   0.130E-04-0.114E-05
 gam= 0.205 trial= 0.625  step= 0.562 mean= 0.625
 gam= 0.219 g(H,U,f)=  0.249E-05 0.349E-06 0.280E-23 ort(H,U,f) =-0.798E-06 0.621E-06 0.509E-23
CGA:   5    -0.593788760458E+03   -0.35874E-05   -0.35818E-05  1200   0.284E-05-0.177E-06
 gam= 0.219 trial= 0.622  step= 0.651 mean= 0.622
 gam= 0.267 g(H,U,f)=  0.661E-06 0.976E-07 0.112E-23 ort(H,U,f) =-0.136E-06 0.243E-06 0.246E-23
CGA:   6    -0.593788761372E+03   -0.91413E-06   -0.91228E-06  1200   0.758E-06 0.108E-06
 gam= 0.267 trial= 0.624  step= 0.866 mean= 0.624
 gam= 0.454 g(H,U,f)=  0.327E-06 0.177E-07 0.104E-24 ort(H,U,f) =-0.164E-06 0.575E-07 0.539E-24
CGA:   7    -0.593788761700E+03   -0.32792E-06   -0.34073E-06  1200   0.344E-06-0.107E-06
 gam= 0.454 trial= 0.636  step= 0.802 mean= 0.636
 gam= 0.309 g(H,U,f)=  0.105E-06 0.169E-08 0.431E-27 ort(H,U,f) =-0.652E-07-0.443E-08-0.224E-25
CGA:   8    -0.593788761813E+03   -0.11299E-06   -0.11862E-06  1200   0.106E-06-0.697E-07
 gam= 0.309 trial= 0.644  step= 0.534 mean= 0.644
 final diagonalization
 230 F= -.59378876E+03 E0= -.59378876E+03  d E =-.587245E-04
 curvature:  -2.72 expect dE=-0.773E-03 dE for cont linesearch -0.717E-10
 trial: gam= 1.18781 g(F)=  0.275E-03 g(S)=  0.875E-05 ort =-0.255E-06 (trialstep = 0.241E+00)
 search vector abs. value=  0.377E-02
 bond charge predicted
 wavefunctions rotated
       N       E                     dE             d eps       ncg     rms          ort
 gam= 0.000 g(H,U,f)=  0.381E-02 0.500E-04 0.512E-22 ort(H,U,f) = 0.000E+00 0.000E+00 0.000E+00
SDA:   1    -0.593787393101E+03    0.13686E-02    0.00000E+00  1200   0.386E-02 0.000E+00
 gam= 0.000 trial= 0.639  step= 0.572 mean= 0.639
 gam= 0.237 g(H,U,f)=  0.894E-03 0.199E-04 0.280E-21 ort(H,U,f) = 0.409E-04-0.257E-04-0.122E-21
CGA:   2    -0.593788497216E+03   -0.11041E-02   -0.11046E-02  1200   0.914E-03 0.153E-04
 gam= 0.237 trial= 0.635  step= 0.559 mean= 0.635
 gam= 0.178 g(H,U,f)=  0.159E-03 0.450E-05 0.631E-22 ort(H,U,f) =-0.231E-05 0.118E-05 0.116E-21
CGA:   3    -0.593788753985E+03   -0.25677E-03   -0.25673E-03  1200   0.163E-03-0.113E-05
 gam= 0.178 trial= 0.631  step= 0.517 mean= 0.631
 gam= 0.207 g(H,U,f)=  0.318E-04 0.190E-05 0.106E-22 ort(H,U,f) =-0.461E-05 0.262E-05 0.338E-22
CGA:   4    -0.593788796216E+03   -0.42231E-04   -0.42117E-04  1200   0.337E-04-0.200E-05
 gam= 0.207 trial= 0.626  step= 0.558 mean= 0.626
 gam= 0.218 g(H,U,f)=  0.648E-05 0.891E-06 0.880E-23 ort(H,U,f) =-0.193E-05 0.157E-05 0.160E-22
CGA:   5    -0.593788805536E+03   -0.93193E-05   -0.93072E-05  1200   0.737E-05-0.360E-06
 gam= 0.218 trial= 0.622  step= 0.653 mean= 0.622
 gam= 0.272 g(H,U,f)=  0.175E-05 0.250E-06 0.346E-23 ort(H,U,f) =-0.419E-06 0.620E-06 0.768E-23
CGA:   6    -0.593788807921E+03   -0.23850E-05   -0.23821E-05  1200   0.200E-05 0.201E-06
 gam= 0.272 trial= 0.624  step= 0.812 mean= 0.624
 gam= 0.391 g(H,U,f)=  0.734E-06 0.495E-07 0.399E-24 ort(H,U,f) =-0.326E-06 0.162E-06 0.188E-23
CGA:   7    -0.593788808741E+03   -0.82020E-06   -0.83589E-06  1200   0.784E-06-0.164E-06
 gam= 0.391 trial= 0.633  step= 0.806 mean= 0.633
 gam= 0.302 g(H,U,f)=  0.234E-06 0.320E-08 0.101E-25 ort(H,U,f) =-0.137E-06 0.623E-08 0.180E-24
CGA:   8    -0.593788809019E+03   -0.27831E-06   -0.29001E-06  1200   0.237E-06-0.131E-06
 gam= 0.302 trial= 0.642  step= 0.568 mean= 0.642
 final diagonalization
 231 F= -.59378881E+03 E0= -.59378881E+03  d E =-.472061E-04
 trial-energy change:   -0.000047  1 .order   -0.000047   -0.000068   -0.000026
 step:   0.3874(harm=  0.3874)  dis= 0.00105  next Energy=  -593.788817 (dE=-0.549E-04)
 bond charge predicted
 wavefunctions rotated
       N       E                     dE             d eps       ncg     rms          ort
 gam= 0.000 g(H,U,f)=  0.142E-02 0.186E-04 0.176E-22 ort(H,U,f) = 0.000E+00 0.000E+00 0.000E+00
SDA:   1    -0.593788289290E+03    0.51945E-03    0.00000E+00  1200   0.144E-02 0.000E+00
 gam= 0.000 trial= 0.638  step= 0.570 mean= 0.638
 gam= 0.235 g(H,U,f)=  0.332E-03 0.734E-05 0.957E-22 ort(H,U,f) = 0.188E-04-0.949E-05-0.415E-22
CGA:   2    -0.593788700209E+03   -0.41092E-03   -0.41123E-03  1200   0.340E-03 0.930E-05
 gam= 0.235 trial= 0.635  step= 0.561 mean= 0.635
 gam= 0.179 g(H,U,f)=  0.592E-04 0.167E-05 0.222E-22 ort(H,U,f) =-0.108E-05 0.422E-06 0.407E-22
CGA:   3    -0.593788796117E+03   -0.95908E-04   -0.95884E-04  1200   0.609E-04-0.662E-06
 gam= 0.179 trial= 0.631  step= 0.521 mean= 0.631
 gam= 0.209 g(H,U,f)=  0.120E-04 0.711E-06 0.372E-23 ort(H,U,f) =-0.219E-05 0.975E-06 0.120E-22
CGA:   4    -0.593788812003E+03   -0.15886E-04   -0.15819E-04  1200   0.127E-04-0.122E-05
 gam= 0.209 trial= 0.626  step= 0.560 mean= 0.626
 gam= 0.219 g(H,U,f)=  0.246E-05 0.332E-06 0.311E-23 ort(H,U,f) =-0.804E-06 0.588E-06 0.568E-23
CGA:   5    -0.593788815493E+03   -0.34897E-05   -0.34821E-05  1200   0.279E-05-0.216E-06
 gam= 0.219 trial= 0.622  step= 0.639 mean= 0.622
 gam= 0.263 g(H,U,f)=  0.638E-06 0.957E-07 0.125E-23 ort(H,U,f) =-0.114E-06 0.236E-06 0.275E-23
CGA:   6    -0.593788816370E+03   -0.87700E-06   -0.87566E-06  1200   0.733E-06 0.122E-06
 gam= 0.263 trial= 0.623  step= 0.856 mean= 0.623
 gam= 0.450 g(H,U,f)=  0.312E-06 0.177E-07 0.122E-24 ort(H,U,f) =-0.155E-06 0.571E-07 0.615E-24
CGA:   7    -0.593788816687E+03   -0.31661E-06   -0.32773E-06  1200   0.330E-06-0.978E-07
 gam= 0.450 trial= 0.635  step= 0.846 mean= 0.635
 gam= 0.350 g(H,U,f)=  0.114E-06 0.156E-08 0.850E-31 ort(H,U,f) =-0.793E-07-0.486E-08-0.333E-27
CGA:   8    -0.593788816799E+03   -0.11196E-06   -0.12096E-06  1200   0.115E-06-0.841E-07
 gam= 0.350 trial= 0.645  step= 0.533 mean= 0.645
 final diagonalization
 232 F= -.59378882E+03 E0= -.59378882E+03  d E =-.549854E-04
 curvature:  -2.58 expect dE=-0.351E-03 dE for cont linesearch -0.371E-09
 trial: gam= 0.49239 g(F)=  0.132E-03 g(S)=  0.467E-05 ort =-0.736E-06 (trialstep = 0.270E+00)
 search vector abs. value=  0.105E-02
 bond charge predicted
 wavefunctions rotated
       N       E                     dE             d eps       ncg     rms          ort
 gam= 0.000 g(H,U,f)=  0.130E-02 0.165E-04 0.123E-23 ort(H,U,f) = 0.000E+00 0.000E+00 0.000E+00
SDA:   1    -0.593788364901E+03    0.45179E-03    0.00000E+00  1200   0.132E-02 0.000E+00
 gam= 0.000 trial= 0.640  step= 0.569 mean= 0.640
 gam= 0.235 g(H,U,f)=  0.303E-03 0.647E-05 0.206E-22 ort(H,U,f) = 0.125E-04-0.845E-05-0.514E-23
CGA:   2    -0.593788740322E+03   -0.37542E-03   -0.37556E-03  1200   0.310E-03 0.403E-05
 gam= 0.235 trial= 0.636  step= 0.563 mean= 0.636
 gam= 0.179 g(H,U,f)=  0.539E-04 0.146E-05 0.734E-23 ort(H,U,f) =-0.129E-05 0.411E-06 0.113E-22
CGA:   3    -0.593788827735E+03   -0.87413E-04   -0.87381E-04  1200   0.553E-04-0.875E-06
 gam= 0.179 trial= 0.633  step= 0.518 mean= 0.633
 gam= 0.206 g(H,U,f)=  0.107E-04 0.651E-06 0.136E-23 ort(H,U,f) =-0.163E-05 0.881E-06 0.401E-23
CGA:   4    -0.593788842071E+03   -0.14336E-04   -0.14293E-04  1200   0.114E-04-0.745E-06
 gam= 0.206 trial= 0.627  step= 0.560 mean= 0.627
 gam= 0.220 g(H,U,f)=  0.222E-05 0.289E-06 0.853E-24 ort(H,U,f) =-0.641E-06 0.524E-06 0.172E-23
CGA:   5    -0.593788845217E+03   -0.31466E-05   -0.31425E-05  1200   0.251E-05-0.117E-06
 gam= 0.220 trial= 0.624  step= 0.667 mean= 0.624
 gam= 0.283 g(H,U,f)=  0.629E-06 0.802E-07 0.426E-24 ort(H,U,f) =-0.179E-06 0.203E-06 0.867E-24
CGA:   6    -0.593788846045E+03   -0.82749E-06   -0.82692E-06  1200   0.709E-06 0.232E-07
 gam= 0.283 trial= 0.626  step= 0.844 mean= 0.626
 gam= 0.417 g(H,U,f)=  0.282E-06 0.134E-07 0.378E-25 ort(H,U,f) =-0.142E-06 0.490E-07 0.199E-24
CGA:   7    -0.593788846337E+03   -0.29204E-06   -0.30226E-06  1200   0.296E-06-0.932E-07
 gam= 0.417 trial= 0.637  step= 0.727 mean= 0.637
 gam= 0.240 g(H,U,f)=  0.702E-07 0.688E-09 0.199E-28 ort(H,U,f) =-0.258E-07 0.720E-09-0.277E-26
CGA:   8    -0.593788846430E+03   -0.92597E-07   -0.93317E-07  1200   0.708E-07-0.251E-07
 gam= 0.240 trial= 0.641  step= 0.558 mean= 0.641
 final diagonalization
 233 F= -.59378885E+03 E0= -.59378885E+03  d E =-.296311E-04
 trial-energy change:   -0.000030  1 .order   -0.000029   -0.000037   -0.000021
 step:   0.6505(harm=  0.6505)  dis= 0.00097  next Energy=  -593.788861 (dE=-0.442E-04)
 bond charge predicted
 wavefunctions rotated
       N       E                     dE             d eps       ncg     rms          ort
 gam= 0.000 g(H,U,f)=  0.259E-02 0.329E-04 0.279E-23 ort(H,U,f) = 0.000E+00 0.000E+00 0.000E+00
SDA:   1    -0.593787902892E+03    0.94345E-03    0.00000E+00  1200   0.263E-02 0.000E+00
 gam= 0.000 trial= 0.637  step= 0.569 mean= 0.637
 gam= 0.235 g(H,U,f)=  0.603E-03 0.129E-04 0.433E-22 ort(H,U,f) = 0.226E-04-0.169E-04-0.113E-22
CGA:   2    -0.593788650080E+03   -0.74719E-03   -0.74738E-03  1200   0.616E-03 0.575E-05
 gam= 0.235 trial= 0.634  step= 0.562 mean= 0.634
 gam= 0.178 g(H,U,f)=  0.107E-03 0.289E-05 0.150E-22 ort(H,U,f) =-0.208E-05 0.828E-06 0.232E-22
CGA:   3    -0.593788823673E+03   -0.17359E-03   -0.17355E-03  1200   0.110E-03-0.126E-05
 gam= 0.178 trial= 0.630  step= 0.517 mean= 0.630
 gam= 0.205 g(H,U,f)=  0.213E-04 0.129E-05 0.277E-23 ort(H,U,f) =-0.280E-05 0.175E-05 0.817E-23
CGA:   4    -0.593788852061E+03   -0.28388E-04   -0.28329E-04  1200   0.225E-04-0.105E-05
 gam= 0.205 trial= 0.624  step= 0.560 mean= 0.624
 gam= 0.221 g(H,U,f)=  0.441E-05 0.575E-06 0.175E-23 ort(H,U,f) =-0.121E-05 0.104E-05 0.351E-23
CGA:   5    -0.593788858321E+03   -0.62595E-05   -0.62535E-05  1200   0.498E-05-0.170E-06
 gam= 0.221 trial= 0.621  step= 0.670 mean= 0.621
 gam= 0.286 g(H,U,f)=  0.127E-05 0.158E-06 0.859E-24 ort(H,U,f) =-0.364E-06 0.401E-06 0.176E-23
CGA:   6    -0.593788859978E+03   -0.16571E-05   -0.16557E-05  1200   0.142E-05 0.365E-07
 gam= 0.286 trial= 0.624  step= 0.813 mean= 0.624
 gam= 0.380 g(H,U,f)=  0.512E-06 0.285E-07 0.893E-25 ort(H,U,f) =-0.230E-06 0.103E-06 0.437E-24
CGA:   7    -0.593788860549E+03   -0.57100E-06   -0.58275E-06  1200   0.541E-06-0.127E-06
 gam= 0.380 trial= 0.633  step= 0.733 mean= 0.633
 gam= 0.242 g(H,U,f)=  0.129E-06 0.162E-08 0.346E-27 ort(H,U,f) =-0.429E-07 0.660E-08 0.159E-25
CGA:   8    -0.593788860727E+03   -0.17858E-06   -0.18043E-06  1200   0.131E-06-0.363E-07
 gam= 0.242 trial= 0.638  step= 0.599 mean= 0.638
 final diagonalization
 234 F= -.59378886E+03 E0= -.59378886E+03  d E =-.439288E-04
 curvature:  -2.51 expect dE=-0.427E-03 dE for cont linesearch -0.131E-07
 trial: gam= 1.27032 g(F)=  0.165E-03 g(S)=  0.513E-05 ort =-0.234E-05 (trialstep = 0.195E+00)
 search vector abs. value=  0.186E-02
 bond charge predicted
 wavefunctions rotated
       N       E                     dE             d eps       ncg     rms          ort
 gam= 0.000 g(H,U,f)=  0.126E-02 0.163E-04 0.772E-23 ort(H,U,f) = 0.000E+00 0.000E+00 0.000E+00
SDA:   1    -0.593788416612E+03    0.44394E-03    0.00000E+00  1200   0.128E-02 0.000E+00
 gam= 0.000 trial= 0.636  step= 0.570 mean= 0.636
 gam= 0.237 g(H,U,f)=  0.296E-03 0.664E-05 0.210E-23 ort(H,U,f) = 0.104E-04-0.873E-05-0.404E-23
CGA:   2    -0.593788781232E+03   -0.36462E-03   -0.36467E-03  1200   0.303E-03 0.166E-05
 gam= 0.237 trial= 0.633  step= 0.564 mean= 0.633
 gam= 0.175 g(H,U,f)=  0.518E-04 0.134E-05 0.113E-23 ort(H,U,f) =-0.117E-05 0.372E-06-0.839E-24
CGA:   3    -0.593788866701E+03   -0.85469E-04   -0.85441E-04  1200   0.531E-04-0.798E-06
 gam= 0.175 trial= 0.629  step= 0.514 mean= 0.629
 gam= 0.203 g(H,U,f)=  0.102E-04 0.591E-06 0.109E-25 ort(H,U,f) =-0.105E-05 0.792E-06 0.966E-25
CGA:   4    -0.593788880331E+03   -0.13631E-04   -0.13615E-04  1200   0.108E-04-0.254E-06
 gam= 0.203 trial= 0.624  step= 0.559 mean= 0.624
 gam= 0.217 g(H,U,f)=  0.207E-05 0.267E-06 0.173E-25 ort(H,U,f) =-0.503E-06 0.474E-06-0.384E-25
CGA:   5    -0.593788883332E+03   -0.30009E-05   -0.30001E-05  1200   0.234E-05-0.290E-07
 gam= 0.217 trial= 0.620  step= 0.662 mean= 0.620
 gam= 0.279 g(H,U,f)=  0.579E-06 0.742E-07 0.250E-25 ort(H,U,f) =-0.132E-06 0.186E-06-0.108E-25
CGA:   6    -0.593788884106E+03   -0.77404E-06   -0.77259E-06  1200   0.654E-06 0.537E-07
 gam= 0.279 trial= 0.623  step= 0.788 mean= 0.623
 gam= 0.361 g(H,U,f)=  0.221E-06 0.151E-07 0.636E-27 ort(H,U,f) =-0.819E-07 0.518E-07 0.351E-26
CGA:   7    -0.593788884368E+03   -0.26122E-06   -0.26357E-06  1200   0.236E-06-0.302E-07
 gam= 0.361 trial= 0.631  step= 0.736 mean= 0.631
 gam= 0.247 g(H,U,f)=  0.569E-07 0.120E-08 0.146E-26 ort(H,U,f) =-0.158E-07 0.598E-08-0.288E-26
CGA:   8    -0.593788884450E+03   -0.82156E-07   -0.82713E-07  1200   0.581E-07-0.983E-08
 gam= 0.247 trial= 0.636  step= 0.610 mean= 0.636
 final diagonalization
 235 F= -.59378888E+03 E0= -.59378888E+03  d E =-.237223E-04
 trial-energy change:   -0.000024  1 .order   -0.000025   -0.000033   -0.000017
 step:   0.4053(harm=  0.4053)  dis= 0.00083  next Energy=  -593.788895 (dE=-0.338E-04)
 reached required accuracy - stopping structural energy minimisation
Note: The following floating-point exceptions are signalling: IEEE_INVALID_FLAG
Note: The following floating-point exceptions are signalling: IEEE_INVALID_FLAG
Note: The following floating-point exceptions are signalling: IEEE_INVALID_FLAG
Note: The following floating-point exceptions are signalling: IEEE_INVALID_FLAG
Note: The following floating-point exceptions are signalling: IEEE_INVALID_FLAG
Note: The following floating-point exceptions are signalling: IEEE_INVALID_FLAG
Note: The following floating-point exceptions are signalling: IEEE_INVALID_FLAG
Note: The following floating-point exceptions are signalling: IEEE_INVALID_FLAG
Note: The following floating-point exceptions are signalling: IEEE_INVALID_FLAG
Note: The following floating-point exceptions are signalling: IEEE_INVALID_FLAG
Note: The following floating-point exceptions are signalling: IEEE_INVALID_FLAG
Note: The following floating-point exceptions are signalling: IEEE_INVALID_FLAG
Note: The following floating-point exceptions are signalling: IEEE_INVALID_FLAG
Note: The following floating-point exceptions are signalling: IEEE_INVALID_FLAG
Note: The following floating-point exceptions are signalling: IEEE_INVALID_FLAG
Note: The following floating-point exceptions are signalling: IEEE_INVALID_FLAG
Note: The following floating-point exceptions are signalling: IEEE_INVALID_FLAG
Note: The following floating-point exceptions are signalling: IEEE_INVALID_FLAG
Note: The following floating-point exceptions are signalling: IEEE_INVALID_FLAG
Note: The following floating-point exceptions are signalling: IEEE_INVALID_FLAG
Note: The following floating-point exceptions are signalling: IEEE_INVALID_FLAG
Note: The following floating-point exceptions are signalling: IEEE_INVALID_FLAG
Note: The following floating-point exceptions are signalling: IEEE_INVALID_FLAG
Note: The following floating-point exceptions are signalling: IEEE_INVALID_FLAG
Note: The following floating-point exceptions are signalling: IEEE_INVALID_FLAG
Note: The following floating-point exceptions are signalling: IEEE_INVALID_FLAG
Note: The following floating-point exceptions are signalling: IEEE_INVALID_FLAG
Note: The following floating-point exceptions are signalling: IEEE_INVALID_FLAG
Note: The following floating-point exceptions are signalling: IEEE_INVALID_FLAG
Note: The following floating-point exceptions are signalling: IEEE_INVALID_FLAG
Note: The following floating-point exceptions are signalling: IEEE_INVALID_FLAG
Note: The following floating-point exceptions are signalling: IEEE_INVALID_FLAG
Note: The following floating-point exceptions are signalling: IEEE_INVALID_FLAG
Note: The following floating-point exceptions are signalling: IEEE_INVALID_FLAG
Note: The following floating-point exceptions are signalling: IEEE_INVALID_FLAG
Note: The following floating-point exceptions are signalling: IEEE_INVALID_FLAG
Note: The following floating-point exceptions are signalling: IEEE_INVALID_FLAG
Note: The following floating-point exceptions are signalling: IEEE_INVALID_FLAG
Note: The following floating-point exceptions are signalling: IEEE_INVALID_FLAG
Note: The following floating-point exceptions are signalling: IEEE_INVALID_FLAG
Note: The following floating-point exceptions are signalling: IEEE_INVALID_FLAG
Note: The following floating-point exceptions are signalling: IEEE_INVALID_FLAG
Note: The following floating-point exceptions are signalling: IEEE_INVALID_FLAG
Note: The following floating-point exceptions are signalling: IEEE_INVALID_FLAG
Note: The following floating-point exceptions are signalling: IEEE_INVALID_FLAG
Note: The following floating-point exceptions are signalling: IEEE_INVALID_FLAG
Note: The following floating-point exceptions are signalling: IEEE_INVALID_FLAG
Note: The following floating-point exceptions are signalling: IEEE_INVALID_FLAG
Note: The following floating-point exceptions are signalling: IEEE_INVALID_FLAG
Note: The following floating-point exceptions are signalling: IEEE_INVALID_FLAG
Note: The following floating-point exceptions are signalling: IEEE_INVALID_FLAG
Note: The following floating-point exceptions are signalling: IEEE_INVALID_FLAG
Note: The following floating-point exceptions are signalling: IEEE_INVALID_FLAG
Note: The following floating-point exceptions are signalling: IEEE_INVALID_FLAG
Note: The following floating-point exceptions are signalling: IEEE_INVALID_FLAG
Note: The following floating-point exceptions are signalling: IEEE_INVALID_FLAG
Note: The following floating-point exceptions are signalling: IEEE_INVALID_FLAG
Note: The following floating-point exceptions are signalling: IEEE_INVALID_FLAG
Note: The following floating-point exceptions are signalling: IEEE_INVALID_FLAG
Note: The following floating-point exceptions are signalling: IEEE_INVALID_FLAG
Note: The following floating-point exceptions are signalling: IEEE_INVALID_FLAG
Note: The following floating-point exceptions are signalling: IEEE_INVALID_FLAG
Note: The following floating-point exceptions are signalling: IEEE_INVALID_FLAG
Note: The following floating-point exceptions are signalling: IEEE_INVALID_FLAG
