<?xml version="1.0" encoding="ISO-8859-1"?>
<modeling>
 <generator>
  <i name="program" type="string">vasp </i>
  <i name="version" type="string">6.3.1  </i>
  <i name="subversion" type="string">04May22 (build May 25 2022 13:42:54) complex                          parallel </i>
  <i name="platform" type="string">HPECrayEX_GCC </i>
  <i name="date" type="string">2022 09 15 </i>
  <i name="time" type="string">11:02:03 </i>
 </generator>
 <incar>
  <i type="string" name="SYSTEM">ortho-FASnI3</i>
  <i type="int" name="ISTART">     0</i>
  <i type="string" name="PREC">Accurate</i>
  <i type="string" name="ALGO">ALL</i>
  <i type="int" name="ISPIN">     1</i>
  <i type="int" name="NELM">   200</i>
  <i type="int" name="NELMIN">     8</i>
  <i type="int" name="IBRION">     2</i>
  <i name="EDIFF">      0.00000500</i>
  <i name="EDIFFG">     -0.01000000</i>
  <i type="int" name="NSW">  1000</i>
  <i type="int" name="ISIF">     3</i>
  <i type="int" name="ISYM">     0</i>
  <i name="ENCUT">    700.00000000</i>
  <i type="logical" name="LREAL"> F  </i>
  <i type="int" name="ISMEAR">     0</i>
  <i name="SIGMA">      0.05000000</i>
  <i type="logical" name="LWAVE"> F  </i>
  <i type="logical" name="LCHARG"> F  </i>
  <i type="logical" name="LASPH"> T  </i>
  <i type="string" name="METAGGA">R2SCAN</i>
 </incar>
 <primitive_cell>
  <structure name="primitive_cell" >
   <crystal>
    <varray name="basis" >
     <v>       8.83790000       0.00000000       0.00000000 </v>
     <v>       0.00000000       8.83790000       0.00000000 </v>
     <v>       0.00000000       0.00000000      12.40660000 </v>
    </varray>
    <i name="volume">    969.06062343 </i>
    <varray name="rec_basis" >
     <v>       0.11314905       0.00000000       0.00000000 </v>
     <v>       0.00000000       0.11314905       0.00000000 </v>
     <v>       0.00000000       0.00000000       0.08060226 </v>
    </varray>
   </crystal>
   <varray name="positions" >
    <v>       0.54495491       0.04494122       0.50546493 </v>
    <v>       0.00026691       0.50233607       0.45946318 </v>
    <v>       0.54816911       0.00771723       0.01921568 </v>
    <v>       0.00091073       0.50147811       0.05818425 </v>
    <v>       0.31646029       0.01933100       0.52603898 </v>
    <v>       0.51899606       0.81587662       0.52258047 </v>
    <v>       0.70203241       0.88172544       0.50439428 </v>
    <v>       0.38264321       0.20274571       0.51005368 </v>
    <v>       0.63064793       0.13071955       0.49303326 </v>
    <v>       0.90834378       0.39600461       0.59076520 </v>
    <v>       0.11210386       0.59673567       0.58705859 </v>
    <v>       0.16191919       0.66053243       0.45908571 </v>
    <v>       0.83988909       0.34336680       0.46494874 </v>
    <v>       0.99336330       0.50631677       0.37226027 </v>
    <v>       0.32296575       0.98197069       0.98745831 </v>
    <v>       0.53754188       0.85038377       0.89986442 </v>
    <v>       0.71739516       0.89768932       0.94651436 </v>
    <v>       0.36899421       0.11103594       0.08717218 </v>
    <v>       0.62693445       0.06998416       0.06968279 </v>
    <v>       0.87811545       0.57724244       0.92923440 </v>
    <v>       0.10828088       0.41097162       0.92659318 </v>
    <v>       0.18527410       0.37157435       0.05228301 </v>
    <v>       0.81602590       0.63080213       0.05700435 </v>
    <v>       0.00650102       0.50682046       0.14542142 </v>
    <v>       0.00000000       0.00000000       0.00835000 </v>
    <v>       0.50000000       0.50000000       0.00835000 </v>
    <v>       0.69870000       0.19870000       0.75040000 </v>
    <v>       0.30130000       0.80130000       0.75040000 </v>
    <v>       0.80130000       0.69870000       0.75040000 </v>
    <v>       0.19870000       0.30130000       0.75040000 </v>
    <v>       0.00000000       0.00000000       0.50970000 </v>
    <v>       0.50000000       0.50000000       0.50970000 </v>
    <v>       0.73403000       0.23403000       0.24900000 </v>
    <v>       0.26597000       0.76597000       0.24900000 </v>
    <v>       0.76597000       0.73403000       0.24900000 </v>
    <v>       0.23403000       0.26597000       0.24900000 </v>
    <v>       0.58999386       0.90428717       0.51018321 </v>
    <v>       0.40466358       0.09037195       0.51298825 </v>
    <v>       0.09723109       0.59267578       0.50610388 </v>
    <v>       0.91047799       0.40812618       0.50949778 </v>
    <v>       0.60362626       0.90743064       0.95296381 </v>
    <v>       0.40409221       0.03779865       0.02936372 </v>
    <v>       0.10408462       0.42310300       0.00811623 </v>
    <v>       0.89135982       0.57406528       0.01058181 </v>
    <v>       0.00000000       0.00000000       0.25380000 </v>
    <v>       0.50000000       0.50000000       0.25380000 </v>
    <v>       0.00000000       0.00000000       0.75370000 </v>
    <v>       0.50000000       0.50000000       0.75370000 </v>
   </varray>
  </structure>
  <varray name="primitive_index" >
   <v type="int" >        1 </v>
   <v type="int" >        2 </v>
   <v type="int" >        3 </v>
   <v type="int" >        4 </v>
   <v type="int" >        5 </v>
   <v type="int" >        6 </v>
   <v type="int" >        7 </v>
   <v type="int" >        8 </v>
   <v type="int" >        9 </v>
   <v type="int" >       10 </v>
   <v type="int" >       11 </v>
   <v type="int" >       12 </v>
   <v type="int" >       13 </v>
   <v type="int" >       14 </v>
   <v type="int" >       15 </v>
   <v type="int" >       16 </v>
   <v type="int" >       17 </v>
   <v type="int" >       18 </v>
   <v type="int" >       19 </v>
   <v type="int" >       20 </v>
   <v type="int" >       21 </v>
   <v type="int" >       22 </v>
   <v type="int" >       23 </v>
   <v type="int" >       24 </v>
   <v type="int" >       25 </v>
   <v type="int" >       26 </v>
   <v type="int" >       27 </v>
   <v type="int" >       28 </v>
   <v type="int" >       29 </v>
   <v type="int" >       30 </v>
   <v type="int" >       31 </v>
   <v type="int" >       32 </v>
   <v type="int" >       33 </v>
   <v type="int" >       34 </v>
   <v type="int" >       35 </v>
   <v type="int" >       36 </v>
   <v type="int" >       37 </v>
   <v type="int" >       38 </v>
   <v type="int" >       39 </v>
   <v type="int" >       40 </v>
   <v type="int" >       41 </v>
   <v type="int" >       42 </v>
   <v type="int" >       43 </v>
   <v type="int" >       44 </v>
   <v type="int" >       45 </v>
   <v type="int" >       46 </v>
   <v type="int" >       47 </v>
   <v type="int" >       48 </v>
  </varray>
 </primitive_cell>
 <kpoints>
  <generation param="Gamma">
   <v type="int" name="divisions">       3        3        2 </v>
   <v name="usershift">      0.00000000       0.00000000       0.00000000 </v>
   <v name="genvec1">      0.33333333       0.00000000       0.00000000 </v>
   <v name="genvec2">      0.00000000       0.33333333       0.00000000 </v>
   <v name="genvec3">      0.00000000       0.00000000       0.50000000 </v>
   <v name="shift">      0.00000000       0.00000000       0.00000000 </v>
  </generation>
  <varray name="kpointlist" >
   <v>       0.00000000       0.00000000       0.00000000 </v>
   <v>       0.33333333       0.00000000       0.00000000 </v>
   <v>       0.00000000       0.33333333       0.00000000 </v>
   <v>       0.33333333       0.33333333       0.00000000 </v>
   <v>      -0.33333333       0.33333333       0.00000000 </v>
   <v>       0.00000000       0.00000000       0.50000000 </v>
   <v>       0.33333333       0.00000000       0.50000000 </v>
   <v>       0.00000000       0.33333333       0.50000000 </v>
   <v>       0.33333333       0.33333333       0.50000000 </v>
   <v>      -0.33333333       0.33333333       0.50000000 </v>
  </varray>
  <varray name="weights" >
   <v>       0.05555556 </v>
   <v>       0.11111111 </v>
   <v>       0.11111111 </v>
   <v>       0.11111111 </v>
   <v>       0.11111111 </v>
   <v>       0.05555556 </v>
   <v>       0.11111111 </v>
   <v>       0.11111111 </v>
   <v>       0.11111111 </v>
   <v>       0.11111111 </v>
  </varray>
 </kpoints>
 <parameters>
  <separator name="general" >
   <i type="string" name="SYSTEM">ortho-FASnI3</i>
   <i type="logical" name="LCOMPAT"> F  </i>
  </separator>
  <separator name="electronic" >
   <i type="string" name="PREC">accura</i>
   <i name="ENMAX">    700.00000000</i>
   <i name="ENAUG">    644.87300000</i>
   <i name="EDIFF">      0.00000500</i>
   <i type="int" name="IALGO">    58</i>
   <i type="int" name="IWAVPR">    11</i>
   <i type="int" name="NBANDS">   120</i>
   <i type="int" name="NBANDSLOW">    -1</i>
   <i type="int" name="NBANDSHIGH">    -1</i>
   <i name="NELECT">    176.00000000</i>
   <i type="int" name="TURBO">     0</i>
   <i type="int" name="IRESTART">     0</i>
   <i type="int" name="NREBOOT">     0</i>
   <i type="int" name="NMIN">     0</i>
   <i name="EREF">      0.00000000</i>
   <separator name="electronic smearing" >
    <i type="int" name="ISMEAR">     0</i>
    <i name="SIGMA">      0.05000000</i>
    <i name="KSPACING">      0.50000000</i>
    <i type="logical" name="KGAMMA"> T  </i>
    <i type="logical" name="KBLOWUP"> T  </i>
   </separator>
   <separator name="electronic projectors" >
    <i type="logical" name="LREAL"> F  </i>
    <v name="ROPT">      0.00000000      0.00000000      0.00000000      0.00000000      0.00000000</v>
    <i type="int" name="LMAXPAW">  -100</i>
    <i type="int" name="LMAXMIX">     2</i>
    <i type="logical" name="NLSPLINE"> F  </i>
   </separator>
   <separator name="electronic startup" >
    <i type="int" name="ISTART">     0</i>
    <i type="int" name="ICHARG">     2</i>
    <i type="int" name="INIWAV">     1</i>
   </separator>
   <separator name="electronic spin" >
    <i type="int" name="ISPIN">     1</i>
    <i type="logical" name="LNONCOLLINEAR"> F  </i>
    <v name="MAGMOM">      1.00000000      1.00000000      1.00000000      1.00000000      1.00000000      1.00000000      1.00000000      1.00000000      1.00000000      1.00000000      1.00000000      1.00000000      1.00000000      1.00000000      1.00000000      1.00000000      1.00000000      1.00000000      1.00000000      1.00000000
      1.00000000      1.00000000      1.00000000      1.00000000      1.00000000      1.00000000      1.00000000      1.00000000      1.00000000      1.00000000      1.00000000      1.00000000      1.00000000      1.00000000      1.00000000      1.00000000      1.00000000      1.00000000      1.00000000      1.00000000
      1.00000000      1.00000000      1.00000000      1.00000000      1.00000000      1.00000000      1.00000000      1.00000000</v>
    <i name="NUPDOWN">     -1.00000000</i>
    <i type="logical" name="LSORBIT"> F  </i>
    <v name="SAXIS">      0.00000000      0.00000000      1.00000000</v>
    <i type="logical" name="LSPIRAL"> F  </i>
    <v name="QSPIRAL">      0.00000000      0.00000000      0.00000000</v>
    <i type="logical" name="LZEROZ"> F  </i>
   </separator>
   <separator name="electronic exchange-correlation" >
    <i type="logical" name="LASPH"> T  </i>
    <i type="logical" name="LMETAGGA"> F  </i>
   </separator>
   <separator name="electronic convergence" >
    <i type="int" name="NELM">   200</i>
    <i type="int" name="NELMDL">    -5</i>
    <i type="int" name="NELMIN">     8</i>
    <i name="ENINI">    700.00000000</i>
    <separator name="electronic convergence detail" >
     <i type="logical" name="LDIAG"> T  </i>
     <i type="logical" name="LSUBROT"> F  </i>
     <i name="WEIMIN">      0.00100000</i>
     <i name="EBREAK">      0.00000001</i>
     <i name="DEPER">      0.30000000</i>
     <i type="int" name="NRMM">     4</i>
     <i name="TIME">      0.40000000</i>
    </separator>
   </separator>
   <separator name="electronic mixer" >
    <i name="AMIX">      0.40000000</i>
    <i name="BMIX">      1.00000000</i>
    <i name="AMIN">      0.10000000</i>
    <i name="AMIX_MAG">      1.60000000</i>
    <i name="BMIX_MAG">      1.00000000</i>
    <separator name="electronic mixer details" >
     <i type="int" name="IMIX">     4</i>
     <i type="logical" name="MIXFIRST"> F  </i>
     <i type="int" name="MAXMIX">   -45</i>
     <i name="WC">    100.00000000</i>
     <i type="int" name="INIMIX">     1</i>
     <i type="int" name="MIXPRE">     1</i>
     <i type="int" name="MREMOVE">     5</i>
    </separator>
   </separator>
   <separator name="electronic dipolcorrection" >
    <i type="logical" name="LDIPOL"> F  </i>
    <i type="logical" name="LMONO"> F  </i>
    <i type="int" name="IDIPOL">     0</i>
    <i name="EPSILON">      1.00000000</i>
    <v name="DIPOL">   -100.00000000   -100.00000000   -100.00000000</v>
    <i name="EFIELD">      0.00000000</i>
   </separator>
  </separator>
  <separator name="grids" >
   <i type="int" name="NGX">    80</i>
   <i type="int" name="NGY">    80</i>
   <i type="int" name="NGZ">   108</i>
   <i type="int" name="NGXF">   160</i>
   <i type="int" name="NGYF">   160</i>
   <i type="int" name="NGZF">   216</i>
   <i type="logical" name="ADDGRID"> F  </i>
  </separator>
  <separator name="ionic" >
   <i type="int" name="NSW">  1000</i>
   <i type="int" name="IBRION">     2</i>
   <i type="int" name="MDALGO">     0</i>
   <i type="int" name="ISIF">     3</i>
   <i name="PSTRESS">      0.00000000</i>
   <i name="EDIFFG">     -0.01000000</i>
   <i type="int" name="NFREE">     1</i>
   <i name="POTIM">      0.50000000</i>
   <i name="SMASS">     -3.00000000</i>
   <i name="SCALEE">      1.00000000</i>
  </separator>
  <separator name="ionic md" >
   <i name="TEBEG">      0.00010000</i>
   <i name="TEEND">      0.00010000</i>
   <i type="int" name="NBLOCK">     1</i>
   <i type="int" name="KBLOCK">  1000</i>
   <i type="int" name="NPACO">   256</i>
   <i name="APACO">     10.00000000</i>
  </separator>
  <separator name="symmetry" >
   <i type="int" name="ISYM">     0</i>
   <i name="SYMPREC">      0.00001000</i>
  </separator>
  <separator name="dos" >
   <i type="int" name="LORBIT">     0</i>
   <v name="RWIGS">     -1.00000000     -1.00000000     -1.00000000     -1.00000000     -1.00000000</v>
   <i type="int" name="NEDOS">   301</i>
   <i name="EMIN">     10.00000000</i>
   <i name="EMAX">    -10.00000000</i>
   <i name="EFERMI">      0.00000000</i>
  </separator>
  <separator name="writing" >
   <i type="int" name="NWRITE">     2</i>
   <i type="logical" name="LWAVE"> F  </i>
   <i type="logical" name="LDOWNSAMPLE"> F  </i>
   <i type="logical" name="LCHARG"> F  </i>
   <i type="logical" name="LPARD"> F  </i>
   <i type="logical" name="LVTOT"> F  </i>
   <i type="logical" name="LVHAR"> F  </i>
   <i type="logical" name="LELF"> F  </i>
   <i type="logical" name="LOPTICS"> F  </i>
   <v name="STM">      0.00000000      0.00000000      0.00000000      0.00000000      0.00000000      0.00000000      0.00000000</v>
  </separator>
  <separator name="performance" >
   <i type="int" name="NPAR">     8</i>
   <i type="int" name="NSIM">     4</i>
   <i type="int" name="NBLK">    -1</i>
   <i type="logical" name="LPLANE"> T  </i>
   <i type="logical" name="LSCALAPACK"> T  </i>
   <i type="logical" name="LSCAAWARE"> F  </i>
   <i type="logical" name="LSCALU"> F  </i>
   <i type="logical" name="LASYNC"> F  </i>
   <i type="logical" name="LORBITALREAL"> F  </i>
  </separator>
  <separator name="miscellaneous" >
   <i type="int" name="IDIOT">     3</i>
   <i type="int" name="PHON_NSTRUCT">    -1</i>
   <i type="logical" name="LMUSIC"> F  </i>
   <v name="POMASS">     12.01100000      1.00000000    126.90400000     14.00100000    118.71000000</v>
   <v name="DARWINR">      0.00000000      0.00000000      0.00000000      0.00000000      0.00000000</v>
   <v name="DARWINV">      1.00000000      1.00000000      1.00000000      1.00000000      1.00000000</v>
   <i type="logical" name="LCORR"> T  </i>
  </separator>
  <i type="logical" name="GGA_COMPAT"> T  </i>
  <i type="logical" name="LBERRY"> F  </i>
  <i type="int" name="ICORELEVEL">     0</i>
  <i type="logical" name="LDAU"> F  </i>
  <i type="int" name="I_CONSTRAINED_M">     0</i>
  <separator name="electronic exchange-correlation" >
   <i type="string" name="GGA">--</i>
   <i type="int" name="VOSKOWN">     0</i>
   <i type="logical" name="LHFCALC"> F  </i>
   <i type="string" name="PRECFOCK"></i>
   <i type="logical" name="LSYMGRAD"> F  </i>
   <i type="logical" name="LHFONE"> F  </i>
   <i type="logical" name="LRHFCALC"> F  </i>
   <i type="logical" name="LTHOMAS"> F  </i>
   <i type="logical" name="LMODELHF"> F  </i>
   <i type="logical" name="LFOCKACE"> F  </i>
   <i name="ENCUT4O">     -1.00000000</i>
   <i type="int" name="EXXOEP">     0</i>
   <i type="int" name="FOURORBIT">     0</i>
   <i name="AEXX">      0.00000000</i>
   <i name="HFALPHA">      0.00000000</i>
   <i name="MCALPHA">      0.00000000</i>
   <i name="ALDAX">      1.00000000</i>
   <i name="AGGAX">      1.00000000</i>
   <i name="ALDAC">      1.00000000</i>
   <i name="AGGAC">      1.00000000</i>
   <i type="int" name="NKREDX">     1</i>
   <i type="int" name="NKREDY">     1</i>
   <i type="int" name="NKREDZ">     1</i>
   <i type="logical" name="SHIFTRED"> F  </i>
   <i type="logical" name="ODDONLY"> F  </i>
   <i type="logical" name="EVENONLY"> F  </i>
   <i type="int" name="LMAXFOCK">     0</i>
   <i type="int" name="NMAXFOCKAE">     0</i>
   <i type="logical" name="LFOCKAEDFT"> F  </i>
   <i name="HFSCREEN">      0.00000000</i>
   <i name="HFSCREENC">      0.00000000</i>
   <i type="int" name="NBANDSGWLOW">     0</i>
  </separator>
  <separator name="vdW DFT" >
   <i type="logical" name="LUSE_VDW"> F  </i>
   <i name="Zab_VDW">     -0.84910000</i>
   <i name="PARAM1">      0.12340000</i>
   <i name="PARAM2">      1.00000000</i>
   <i name="PARAM3">      0.00000000</i>
  </separator>
  <separator name="model GW" >
   <i type="int" name="MODEL_GW">     0</i>
   <i name="MODEL_EPS0">     12.11325779</i>
   <i name="MODEL_ALPHA">      1.00000000</i>
  </separator>
  <separator name="linear response parameters" >
   <i type="logical" name="LEPSILON"> F  </i>
   <i type="logical" name="LRPA"> F  </i>
   <i type="logical" name="LNABLA"> F  </i>
   <i type="logical" name="LVEL"> F  </i>
   <i name="CSHIFT">      0.10000000</i>
   <i name="OMEGAMAX">     -1.00000000</i>
   <i name="DEG_THRESHOLD">      0.00200000</i>
   <i name="RTIME">     -0.10000000</i>
   <i name="WPLASMAI">      0.00000000</i>
   <v name="DFIELD">      0.00000000      0.00000000      0.00000000</v>
   <v name="WPLASMA">      0.00000000      0.00000000      0.00000000      0.00000000      0.00000000      0.00000000      0.00000000      0.00000000      0.00000000</v>
  </separator>
  <separator name="orbital magnetization" >
   <i type="logical" name="NUCIND"> F  </i>
   <v name="MAGPOS">      0.00000000      0.00000000      0.00000000</v>
   <i type="logical" name="LNICSALL"> T  </i>
   <i type="logical" name="ORBITALMAG"> F  </i>
   <i type="logical" name="LMAGBLOCH"> F  </i>
   <i type="logical" name="LCHIMAG"> F  </i>
   <i type="logical" name="LGAUGE"> T  </i>
   <i type="int" name="MAGATOM">     0</i>
   <v name="MAGDIPOL">      0.00000000      0.00000000      0.00000000</v>
   <v name="AVECCONST">      0.00000000      0.00000000      0.00000000</v>
  </separator>
  <separator name="response functions" >
   <i type="logical" name="LFINITE_TEMPERATURE"> F  </i>
   <i type="logical" name="LADDER"> F  </i>
   <i type="logical" name="LRPAFORCE"> F  </i>
   <i type="logical" name="LFXC"> F  </i>
   <i type="logical" name="LHARTREE"> T  </i>
   <i type="int" name="IBSE">     0</i>
   <v type="int" name="KPOINT">    -1     0     0     0</v>
   <i type="logical" name="LTCTC"> F  </i>
   <i type="logical" name="LTCTE"> F  </i>
   <i type="logical" name="LTETE"> F  </i>
   <i type="logical" name="LTRIPLET"> F  </i>
   <i type="logical" name="LFXCEPS"> F  </i>
   <i type="logical" name="LFXHEG"> F  </i>
   <i type="int" name="NATURALO">     2</i>
   <i type="logical" name="LHOLEGF"> F  </i>
   <i type="logical" name="L2ORDER"> F  </i>
   <i type="logical" name="LDMP1"> F  </i>
   <i type="logical" name="LMP2LT"> F  </i>
   <i type="logical" name="LSMP2LT"> F  </i>
   <i type="logical" name="LGWLF"> F  </i>
   <i name="ENCUTGW">     -2.00000000</i>
   <i name="ENCUTGWSOFT">     -2.00000000</i>
   <i name="ENCUTLF">     -1.00000000</i>
   <i type="logical" name="LESF_SPLINES"> F  </i>
   <i type="int" name="LMAXMP2">    -1</i>
   <i name="SCISSOR">      0.00000000</i>
   <i type="int" name="NOMEGA">     0</i>
   <i type="int" name="NOMEGAR">     0</i>
   <i type="int" name="NBANDSGW">    -1</i>
   <i type="int" name="NBANDSO">    -1</i>
   <i type="int" name="NBANDSV">    -1</i>
   <i type="int" name="NELMGW">     1</i>
   <i type="int" name="NELMHF">     1</i>
   <i type="int" name="DIM">     3</i>
   <i type="int" name="IESPILON">     4</i>
   <i type="int" name="ANTIRES">     0</i>
   <i name="OMEGAMAX">    -30.00000000</i>
   <i name="OMEGAMIN">    -30.00000000</i>
   <i name="OMEGATL">   -200.00000000</i>
   <i type="int" name="OMEGAGRID">     0</i>
   <i name="CSHIFT">     -0.10000000</i>
   <i type="logical" name="LSELFENERGY"> F  </i>
   <i type="logical" name="LSPECTRAL"> F  </i>
   <i type="logical" name="LSPECTRALGW"> F  </i>
   <i type="logical" name="LSINGLES"> F  </i>
   <i type="logical" name="LFERMIGW"> F  </i>
   <i type="logical" name="ODDONLYGW"> F  </i>
   <i type="logical" name="EVENONLYGW"> F  </i>
   <i type="int" name="NKREDLFX">     1</i>
   <i type="int" name="NKREDLFY">     1</i>
   <i type="int" name="NKREDLFZ">     1</i>
   <i type="int" name="MAXMEM">  2800</i>
   <i type="int" name="TELESCOPE">     0</i>
   <i type="int" name="NTAUPAR">    -1</i>
   <i type="int" name="NOMEGAPAR">    -1</i>
   <i name="DAMP_NEWTON">      0.80000001</i>
   <i name="LAMBDA">      1.00000000</i>
  </separator>
  <separator name="External order field" >
   <i name="OFIELD_KAPPA">      0.00000000</i>
   <v name="OFIELD_K">      0.00000000      0.00000000      0.00000000</v>
   <i name="OFIELD_Q6_NEAR">      0.00000000</i>
   <i name="OFIELD_Q6_FAR">      0.00000000</i>
   <i name="OFIELD_A">      0.00000000</i>
  </separator>
  <separator name="optional k-points parameters" >
   <i type="int" name="KPOINTS_OPT_MODE">     1</i>
   <i type="logical" name="LKPOINTS_OPT"> F  </i>
  </separator>
 </parameters>
 <atominfo>
  <atoms>      48 </atoms>
  <types>       5 </types>
  <array name="atoms" >
   <dimension dim="1">ion</dimension>
   <field type="string">element</field>
   <field type="int">atomtype</field>
   <set>
    <rc><c>C </c><c>   1</c></rc>
    <rc><c>C </c><c>   1</c></rc>
    <rc><c>C </c><c>   1</c></rc>
    <rc><c>C </c><c>   1</c></rc>
    <rc><c>H </c><c>   2</c></rc>
    <rc><c>H </c><c>   2</c></rc>
    <rc><c>H </c><c>   2</c></rc>
    <rc><c>H </c><c>   2</c></rc>
    <rc><c>H </c><c>   2</c></rc>
    <rc><c>H </c><c>   2</c></rc>
    <rc><c>H </c><c>   2</c></rc>
    <rc><c>H </c><c>   2</c></rc>
    <rc><c>H </c><c>   2</c></rc>
    <rc><c>H </c><c>   2</c></rc>
    <rc><c>H </c><c>   2</c></rc>
    <rc><c>H </c><c>   2</c></rc>
    <rc><c>H </c><c>   2</c></rc>
    <rc><c>H </c><c>   2</c></rc>
    <rc><c>H </c><c>   2</c></rc>
    <rc><c>H </c><c>   2</c></rc>
    <rc><c>H </c><c>   2</c></rc>
    <rc><c>H </c><c>   2</c></rc>
    <rc><c>H </c><c>   2</c></rc>
    <rc><c>H </c><c>   2</c></rc>
    <rc><c>I </c><c>   3</c></rc>
    <rc><c>I </c><c>   3</c></rc>
    <rc><c>I </c><c>   3</c></rc>
    <rc><c>I </c><c>   3</c></rc>
    <rc><c>I </c><c>   3</c></rc>
    <rc><c>I </c><c>   3</c></rc>
    <rc><c>I </c><c>   3</c></rc>
    <rc><c>I </c><c>   3</c></rc>
    <rc><c>I </c><c>   3</c></rc>
    <rc><c>I </c><c>   3</c></rc>
    <rc><c>I </c><c>   3</c></rc>
    <rc><c>I </c><c>   3</c></rc>
    <rc><c>N </c><c>   4</c></rc>
    <rc><c>N </c><c>   4</c></rc>
    <rc><c>N </c><c>   4</c></rc>
    <rc><c>N </c><c>   4</c></rc>
    <rc><c>N </c><c>   4</c></rc>
    <rc><c>N </c><c>   4</c></rc>
    <rc><c>N </c><c>   4</c></rc>
    <rc><c>N </c><c>   4</c></rc>
    <rc><c>Sn</c><c>   5</c></rc>
    <rc><c>Sn</c><c>   5</c></rc>
    <rc><c>Sn</c><c>   5</c></rc>
    <rc><c>Sn</c><c>   5</c></rc>
   </set>
  </array>
  <array name="atomtypes" >
   <dimension dim="1">type</dimension>
   <field type="int">atomspertype</field>
   <field type="string">element</field>
   <field>mass</field>
   <field>valence</field>
   <field type="string">pseudopotential</field>
   <set>
    <rc><c>   4</c><c>C </c><c>     12.01100000</c><c>      4.00000000</c><c>  PAW_PBE C 08Apr2002                   </c></rc>
    <rc><c>  20</c><c>H </c><c>      1.00000000</c><c>      1.00000000</c><c>  PAW_PBE H 15Jun2001                   </c></rc>
    <rc><c>  12</c><c>I </c><c>    126.90400000</c><c>      7.00000000</c><c>  PAW_PBE I 08Apr2002                   </c></rc>
    <rc><c>   8</c><c>N </c><c>     14.00100000</c><c>      5.00000000</c><c>  PAW_PBE N 08Apr2002                   </c></rc>
    <rc><c>   4</c><c>Sn</c><c>    118.71000000</c><c>      4.00000000</c><c>  PAW_PBE Sn 08Apr2002                  </c></rc>
   </set>
  </array>
 </atominfo>
 <structure name="initialpos" >
  <crystal>
   <varray name="basis" >
    <v>       8.83790000       0.00000000       0.00000000 </v>
    <v>       0.00000000       8.83790000       0.00000000 </v>
    <v>       0.00000000       0.00000000      12.40660000 </v>
   </varray>
   <i name="volume">    969.06062343 </i>
   <varray name="rec_basis" >
    <v>       0.11314905       0.00000000       0.00000000 </v>
    <v>       0.00000000       0.11314905       0.00000000 </v>
    <v>       0.00000000       0.00000000       0.08060226 </v>
   </varray>
  </crystal>
  <varray name="positions" >
   <v>       0.54495491       0.04494122       0.50546493 </v>
   <v>       0.00026691       0.50233607       0.45946318 </v>
   <v>       0.54816911       0.00771723       0.01921568 </v>
   <v>       0.00091073       0.50147811       0.05818425 </v>
   <v>       0.31646029       0.01933100       0.52603898 </v>
   <v>       0.51899606       0.81587662       0.52258047 </v>
   <v>       0.70203241       0.88172544       0.50439428 </v>
   <v>       0.38264321       0.20274571       0.51005368 </v>
   <v>       0.63064793       0.13071955       0.49303326 </v>
   <v>       0.90834378       0.39600461       0.59076520 </v>
   <v>       0.11210386       0.59673567       0.58705859 </v>
   <v>       0.16191919       0.66053243       0.45908571 </v>
   <v>       0.83988909       0.34336680       0.46494874 </v>
   <v>       0.99336330       0.50631677       0.37226027 </v>
   <v>       0.32296575       0.98197069       0.98745831 </v>
   <v>       0.53754188       0.85038377       0.89986442 </v>
   <v>       0.71739516       0.89768932       0.94651436 </v>
   <v>       0.36899421       0.11103594       0.08717218 </v>
   <v>       0.62693445       0.06998416       0.06968279 </v>
   <v>       0.87811545       0.57724244       0.92923440 </v>
   <v>       0.10828088       0.41097162       0.92659318 </v>
   <v>       0.18527410       0.37157435       0.05228301 </v>
   <v>       0.81602590       0.63080213       0.05700435 </v>
   <v>       0.00650102       0.50682046       0.14542142 </v>
   <v>       0.00000000       0.00000000       0.00835000 </v>
   <v>       0.50000000       0.50000000       0.00835000 </v>
   <v>       0.69870000       0.19870000       0.75040000 </v>
   <v>       0.30130000       0.80130000       0.75040000 </v>
   <v>       0.80130000       0.69870000       0.75040000 </v>
   <v>       0.19870000       0.30130000       0.75040000 </v>
   <v>       0.00000000       0.00000000       0.50970000 </v>
   <v>       0.50000000       0.50000000       0.50970000 </v>
   <v>       0.73403000       0.23403000       0.24900000 </v>
   <v>       0.26597000       0.76597000       0.24900000 </v>
   <v>       0.76597000       0.73403000       0.24900000 </v>
   <v>       0.23403000       0.26597000       0.24900000 </v>
   <v>       0.58999386       0.90428717       0.51018321 </v>
   <v>       0.40466358       0.09037195       0.51298825 </v>
   <v>       0.09723109       0.59267578       0.50610388 </v>
   <v>       0.91047799       0.40812618       0.50949778 </v>
   <v>       0.60362626       0.90743064       0.95296381 </v>
   <v>       0.40409221       0.03779865       0.02936372 </v>
   <v>       0.10408462       0.42310300       0.00811623 </v>
   <v>       0.89135982       0.57406528       0.01058181 </v>
   <v>       0.00000000       0.00000000       0.25380000 </v>
   <v>       0.50000000       0.50000000       0.25380000 </v>
   <v>       0.00000000       0.00000000       0.75370000 </v>
   <v>       0.50000000       0.50000000       0.75370000 </v>
  </varray>
 </structure>
 <calculation>
  <scstep>
   <time name="total">   10.91   11.31</time>
   <energy>
    <i name="alphaZ">    119.23563490 </i>
    <i name="ewald">  -4664.42992322 </i>
    <i name="hartreedc">  -2094.94408784 </i>
    <i name="XCdc">   -172.39094455 </i>
    <i name="pawpsdc">   5935.95709371 </i>
    <i name="pawaedc">  -5630.49819540 </i>
    <i name="eentropy">     -0.01302486 </i>
    <i name="bandstr">    185.48230314 </i>
    <i name="atom">   7121.46799656 </i>
    <i name="e_fr_energy">    799.86685245 </i>
    <i name="e_wo_entrp">    799.87987731 </i>
    <i name="e_0_energy">    799.87336488 </i>
   </energy>
  </scstep>
  <scstep>
   <time name="total">   11.63   11.64</time>
   <energy>
    <i name="e_fr_energy">   -477.08331397 </i>
    <i name="e_wo_entrp">   -477.08146081 </i>
    <i name="e_0_energy">   -477.08238739 </i>
   </energy>
  </scstep>
  <scstep>
   <time name="total">   11.45   11.46</time>
   <energy>
    <i name="e_fr_energy">   -639.87159479 </i>
    <i name="e_wo_entrp">   -639.87018264 </i>
    <i name="e_0_energy">   -639.87088872 </i>
   </energy>
  </scstep>
  <scstep>
   <time name="total">   11.22   11.22</time>
   <energy>
    <i name="e_fr_energy">   -644.51795596 </i>
    <i name="e_wo_entrp">   -644.51600226 </i>
    <i name="e_0_energy">   -644.51697911 </i>
   </energy>
  </scstep>
  <scstep>
   <time name="total">   12.88   12.89</time>
   <energy>
    <i name="e_fr_energy">   -644.65997951 </i>
    <i name="e_wo_entrp">   -644.65783904 </i>
    <i name="e_0_energy">   -644.65890927 </i>
   </energy>
  </scstep>
  <scstep>
   <time name="total">   12.91   12.93</time>
   <energy>
    <i name="e_fr_energy">   -579.87483039 </i>
    <i name="e_wo_entrp">   -579.87483039 </i>
    <i name="e_0_energy">   -579.87483039 </i>
   </energy>
  </scstep>
  <scstep>
   <time name="total">   12.86   12.87</time>
   <energy>
    <i name="e_fr_energy">   -591.22433950 </i>
    <i name="e_wo_entrp">   -591.22433950 </i>
    <i name="e_0_energy">   -591.22433950 </i>
   </energy>
  </scstep>
  <scstep>
   <time name="total">   12.88   12.90</time>
   <energy>
    <i name="e_fr_energy">   -592.72820148 </i>
    <i name="e_wo_entrp">   -592.72820148 </i>
    <i name="e_0_energy">   -592.72820148 </i>
   </energy>
  </scstep>
  <scstep>
   <time name="total">   12.87   12.88</time>
   <energy>
    <i name="e_fr_energy">   -593.18603199 </i>
    <i name="e_wo_entrp">   -593.18603199 </i>
    <i name="e_0_energy">   -593.18603199 </i>
   </energy>
  </scstep>
  <scstep>
   <time name="total">   12.86   12.87</time>
   <energy>
    <i name="e_fr_energy">   -593.32503767 </i>
    <i name="e_wo_entrp">   -593.32503767 </i>
    <i name="e_0_energy">   -593.32503767 </i>
   </energy>
  </scstep>
  <scstep>
   <time name="total">   12.83   12.85</time>
   <energy>
    <i name="e_fr_energy">   -593.36927051 </i>
    <i name="e_wo_entrp">   -593.36927051 </i>
    <i name="e_0_energy">   -593.36927051 </i>
   </energy>
  </scstep>
  <scstep>
   <time name="total">   12.81   12.83</time>
   <energy>
    <i name="e_fr_energy">   -593.38063709 </i>
    <i name="e_wo_entrp">   -593.38063709 </i>
    <i name="e_0_energy">   -593.38063709 </i>
   </energy>
  </scstep>
  <scstep>
   <time name="total">   12.85   12.85</time>
   <energy>
    <i name="e_fr_energy">   -593.38335984 </i>
    <i name="e_wo_entrp">   -593.38335984 </i>
    <i name="e_0_energy">   -593.38335984 </i>
   </energy>
  </scstep>
  <scstep>
   <time name="total">   12.84   12.88</time>
   <energy>
    <i name="e_fr_energy">   -593.38403362 </i>
    <i name="e_wo_entrp">   -593.38403362 </i>
    <i name="e_0_energy">   -593.38403362 </i>
   </energy>
  </scstep>
  <scstep>
   <time name="total">   12.88   12.90</time>
   <energy>
    <i name="e_fr_energy">   -593.38419016 </i>
    <i name="e_wo_entrp">   -593.38419016 </i>
    <i name="e_0_energy">   -593.38419016 </i>
   </energy>
  </scstep>
  <scstep>
   <time name="total">   12.83   12.84</time>
   <energy>
    <i name="e_fr_energy">   -593.38423167 </i>
    <i name="e_wo_entrp">   -593.38423167 </i>
    <i name="e_0_energy">   -593.38423167 </i>
   </energy>
  </scstep>
  <scstep>
   <time name="total">   12.85   12.85</time>
   <energy>
    <i name="e_fr_energy">   -593.38424272 </i>
    <i name="e_wo_entrp">   -593.38424272 </i>
    <i name="e_0_energy">   -593.38424272 </i>
   </energy>
  </scstep>
  <scstep>
   <time name="total">   14.86   14.86</time>
   <energy>
    <i name="alphaZ">    119.23563490 </i>
    <i name="ewald">  -4664.42992322 </i>
    <i name="hartreedc">  -2323.34425110 </i>
    <i name="XCdc">   -141.98459389 </i>
    <i name="pawpsdc">  13112.11677260 </i>
    <i name="pawaedc"> -12812.15372459 </i>
    <i name="eentropy">     -0.00000000 </i>
    <i name="bandstr">  -1004.29215638 </i>
    <i name="atom">   7121.46799656 </i>
    <i name="e_fr_energy">   -593.38424512 </i>
    <i name="e_wo_entrp">   -593.38424512 </i>
    <i name="e_0_energy">   -593.38424512 </i>
   </energy>
  </scstep>
  <structure>
   <crystal>
    <varray name="basis" >
     <v>       8.83790000       0.00000000       0.00000000 </v>
     <v>       0.00000000       8.83790000       0.00000000 </v>
     <v>       0.00000000       0.00000000      12.40660000 </v>
    </varray>
    <i name="volume">    969.06062343 </i>
    <varray name="rec_basis" >
     <v>       0.11314905       0.00000000       0.00000000 </v>
     <v>       0.00000000       0.11314905       0.00000000 </v>
     <v>       0.00000000       0.00000000       0.08060226 </v>
    </varray>
   </crystal>
   <varray name="positions" >
    <v>       0.54495491       0.04494122       0.50546493 </v>
    <v>       0.00026691       0.50233607       0.45946318 </v>
    <v>       0.54816911       0.00771723       0.01921568 </v>
    <v>       0.00091073       0.50147811       0.05818425 </v>
    <v>       0.31646029       0.01933100       0.52603898 </v>
    <v>       0.51899606       0.81587662       0.52258047 </v>
    <v>       0.70203241       0.88172544       0.50439428 </v>
    <v>       0.38264321       0.20274571       0.51005368 </v>
    <v>       0.63064793       0.13071955       0.49303326 </v>
    <v>       0.90834378       0.39600461       0.59076520 </v>
    <v>       0.11210386       0.59673567       0.58705859 </v>
    <v>       0.16191919       0.66053243       0.45908571 </v>
    <v>       0.83988909       0.34336680       0.46494874 </v>
    <v>       0.99336330       0.50631677       0.37226027 </v>
    <v>       0.32296575       0.98197069       0.98745831 </v>
    <v>       0.53754188       0.85038377       0.89986442 </v>
    <v>       0.71739516       0.89768932       0.94651436 </v>
    <v>       0.36899421       0.11103594       0.08717218 </v>
    <v>       0.62693445       0.06998416       0.06968279 </v>
    <v>       0.87811545       0.57724244       0.92923440 </v>
    <v>       0.10828088       0.41097162       0.92659318 </v>
    <v>       0.18527410       0.37157435       0.05228301 </v>
    <v>       0.81602590       0.63080213       0.05700435 </v>
    <v>       0.00650102       0.50682046       0.14542142 </v>
    <v>       0.00000000       0.00000000       0.00835000 </v>
    <v>       0.50000000       0.50000000       0.00835000 </v>
    <v>       0.69870000       0.19870000       0.75040000 </v>
    <v>       0.30130000       0.80130000       0.75040000 </v>
    <v>       0.80130000       0.69870000       0.75040000 </v>
    <v>       0.19870000       0.30130000       0.75040000 </v>
    <v>       0.00000000       0.00000000       0.50970000 </v>
    <v>       0.50000000       0.50000000       0.50970000 </v>
    <v>       0.73403000       0.23403000       0.24900000 </v>
    <v>       0.26597000       0.76597000       0.24900000 </v>
    <v>       0.76597000       0.73403000       0.24900000 </v>
    <v>       0.23403000       0.26597000       0.24900000 </v>
    <v>       0.58999386       0.90428717       0.51018321 </v>
    <v>       0.40466358       0.09037195       0.51298825 </v>
    <v>       0.09723109       0.59267578       0.50610388 </v>
    <v>       0.91047799       0.40812618       0.50949778 </v>
    <v>       0.60362626       0.90743064       0.95296381 </v>
    <v>       0.40409221       0.03779865       0.02936372 </v>
    <v>       0.10408462       0.42310300       0.00811623 </v>
    <v>       0.89135982       0.57406528       0.01058181 </v>
    <v>       0.00000000       0.00000000       0.25380000 </v>
    <v>       0.50000000       0.50000000       0.25380000 </v>
    <v>       0.00000000       0.00000000       0.75370000 </v>
    <v>       0.50000000       0.50000000       0.75370000 </v>
   </varray>
  </structure>
  <varray name="forces" >
   <v>      -0.00114134       0.00208296       0.00034224 </v>
   <v>       0.00208939       0.00061247       0.00194991 </v>
   <v>      -0.00522087       0.00241908       0.00517856 </v>
   <v>       0.00376748      -0.00186117       0.00238647 </v>
   <v>       0.00270931       0.00357391      -0.00422991 </v>
   <v>      -0.00224809      -0.00266524      -0.00429821 </v>
   <v>      -0.00247895       0.00246883      -0.00132820 </v>
   <v>      -0.00117355      -0.00022330       0.00074087 </v>
   <v>       0.00325469      -0.00115459      -0.00133144 </v>
   <v>       0.00049729      -0.00188107      -0.00062894 </v>
   <v>      -0.00174075      -0.00115542       0.00070144 </v>
   <v>       0.00031348       0.00323160       0.00037907 </v>
   <v>      -0.00072500      -0.00217865      -0.00327627 </v>
   <v>      -0.00015089      -0.00027962      -0.00182527 </v>
   <v>       0.00144662      -0.00043952       0.00141303 </v>
   <v>      -0.00381925      -0.00487370      -0.00179351 </v>
   <v>       0.00663011      -0.00107715      -0.00200676 </v>
   <v>       0.00320432      -0.00214127      -0.00533043 </v>
   <v>       0.00147205       0.00369787      -0.00369392 </v>
   <v>      -0.00200821      -0.00201969      -0.00597166 </v>
   <v>       0.00083572       0.00166435       0.00310673 </v>
   <v>       0.00191377       0.00058121       0.00626380 </v>
   <v>      -0.00262117       0.00157359       0.00499114 </v>
   <v>      -0.00151584       0.00180830       0.00575687 </v>
   <v>      -0.05536387      -0.00675421      -0.03551604 </v>
   <v>      -0.03210257      -0.05889673       0.00220397 </v>
   <v>       0.12680366       0.13463008      -0.02167088 </v>
   <v>      -0.01745521      -0.02184421      -0.04284953 </v>
   <v>       0.03121336      -0.01617819      -0.27595870 </v>
   <v>       0.02042229      -0.03784401      -0.24963426 </v>
   <v>      -0.05358195      -0.02181853      -0.09201777 </v>
   <v>      -0.00388258      -0.05921422      -0.09841682 </v>
   <v>       0.07735566       0.08928005       0.21621972 </v>
   <v>      -0.04535988      -0.03178559       0.19351829 </v>
   <v>      -0.07962587       0.08864586       0.24037678 </v>
   <v>       0.05230418      -0.03623722       0.24798212 </v>
   <v>       0.00165663       0.00216464       0.00305067 </v>
   <v>      -0.00290502      -0.00609737       0.00106091 </v>
   <v>       0.00143132       0.00087159       0.00016445 </v>
   <v>      -0.00115395       0.00287913       0.00120140 </v>
   <v>      -0.00010231       0.00179655       0.00214196 </v>
   <v>      -0.00443386       0.00446509       0.00216798 </v>
   <v>      -0.00026074      -0.00636824      -0.00016197 </v>
   <v>       0.00285686       0.00746775       0.00392711 </v>
   <v>       0.00984903      -0.11863295      -0.09947204 </v>
   <v>       0.00947846       0.15092976      -0.22733491 </v>
   <v>      -0.07745771       0.15463500       0.05921009 </v>
   <v>       0.03702370      -0.21785780       0.17231184 </v>
  </varray>
  <varray name="stress" >
   <v>       7.00347193      -0.29222952      -0.41316904 </v>
   <v>      -0.29241590       4.45473045       0.80023048 </v>
   <v>      -0.41302709       0.80024039      12.51221036 </v>
  </varray>
  <energy>
   <i name="e_fr_energy">   -593.38424512 </i>
   <i name="e_wo_entrp">   -593.38424512 </i>
   <i name="e_0_energy">   -593.38424512 </i>
  </energy>
  <time name="totalsc">  244.29  244.91</time>
 </calculation>
 <calculation>
  <scstep>
   <time name="total">   12.89   12.89</time>
   <energy>
    <i name="alphaZ">    117.51569669 </i>
    <i name="ewald">  -4642.51834444 </i>
    <i name="hartreedc">  -2319.45898813 </i>
    <i name="XCdc">   -143.86400879 </i>
    <i name="pawpsdc">  13674.00629174 </i>
    <i name="pawaedc"> -13373.56799857 </i>
    <i name="eentropy">     -0.00000000 </i>
    <i name="bandstr">  -1026.69574815 </i>
    <i name="atom">   7121.46799656 </i>
    <i name="e_fr_energy">   -593.11510308 </i>
    <i name="e_wo_entrp">   -593.11510308 </i>
    <i name="e_0_energy">   -593.11510308 </i>
   </energy>
  </scstep>
  <scstep>
   <time name="total">   12.85   12.87</time>
   <energy>
    <i name="e_fr_energy">   -593.37843970 </i>
    <i name="e_wo_entrp">   -593.37843970 </i>
    <i name="e_0_energy">   -593.37843970 </i>
   </energy>
  </scstep>
  <scstep>
   <time name="total">   12.84   12.86</time>
   <energy>
    <i name="e_fr_energy">   -593.43864381 </i>
    <i name="e_wo_entrp">   -593.43864381 </i>
    <i name="e_0_energy">   -593.43864381 </i>
   </energy>
  </scstep>
  <scstep>
   <time name="total">   12.88   12.90</time>
   <energy>
    <i name="e_fr_energy">   -593.45195107 </i>
    <i name="e_wo_entrp">   -593.45195107 </i>
    <i name="e_0_energy">   -593.45195107 </i>
   </energy>
  </scstep>
  <scstep>
   <time name="total">   12.87   12.89</time>
   <energy>
    <i name="e_fr_energy">   -593.45556581 </i>
    <i name="e_wo_entrp">   -593.45556581 </i>
    <i name="e_0_energy">   -593.45556581 </i>
   </energy>
  </scstep>
  <scstep>
   <time name="total">   12.85   12.86</time>
   <energy>
    <i name="e_fr_energy">   -593.45692472 </i>
    <i name="e_wo_entrp">   -593.45692472 </i>
    <i name="e_0_energy">   -593.45692472 </i>
   </energy>
  </scstep>
  <scstep>
   <time name="total">   12.85   12.86</time>
   <energy>
    <i name="e_fr_energy">   -593.45729200 </i>
    <i name="e_wo_entrp">   -593.45729200 </i>
    <i name="e_0_energy">   -593.45729200 </i>
   </energy>
  </scstep>
  <scstep>
   <time name="total">   12.90   12.92</time>
   <energy>
    <i name="e_fr_energy">   -593.45737796 </i>
    <i name="e_wo_entrp">   -593.45737796 </i>
    <i name="e_0_energy">   -593.45737796 </i>
   </energy>
  </scstep>
  <scstep>
   <time name="total">   12.83   12.84</time>
   <energy>
    <i name="e_fr_energy">   -593.45739916 </i>
    <i name="e_wo_entrp">   -593.45739916 </i>
    <i name="e_0_energy">   -593.45739916 </i>
   </energy>
  </scstep>
  <scstep>
   <time name="total">   12.83   12.84</time>
   <energy>
    <i name="e_fr_energy">   -593.45740488 </i>
    <i name="e_wo_entrp">   -593.45740488 </i>
    <i name="e_0_energy">   -593.45740488 </i>
   </energy>
  </scstep>
  <scstep>
   <time name="total">   14.85   14.87</time>
   <energy>
    <i name="alphaZ">    117.51569669 </i>
    <i name="ewald">  -4642.51834444 </i>
    <i name="hartreedc">  -2330.57663164 </i>
    <i name="XCdc">   -143.11104986 </i>
    <i name="pawpsdc">  12954.09342189 </i>
    <i name="pawaedc"> -12653.97641618 </i>
    <i name="eentropy">     -0.00000000 </i>
    <i name="bandstr">  -1016.35207943 </i>
    <i name="atom">   7121.46799656 </i>
    <i name="e_fr_energy">   -593.45740641 </i>
    <i name="e_wo_entrp">   -593.45740641 </i>
    <i name="e_0_energy">   -593.45740641 </i>
   </energy>
  </scstep>
  <structure>
   <crystal>
    <varray name="basis" >
     <v>       8.87552641      -0.00157001      -0.00221977 </v>
     <v>      -0.00157102       8.86183320       0.00429927 </v>
     <v>      -0.00311503       0.00603537      12.50096635 </v>
    </varray>
    <i name="volume">    983.24361714 </i>
    <varray name="rec_basis" >
     <v>       0.11266938       0.00001996       0.00002807 </v>
     <v>       0.00001995       0.11284350      -0.00005447 </v>
     <v>       0.00002000      -0.00003881       0.07999384 </v>
    </varray>
   </crystal>
   <varray name="positions" >
    <v>       0.54494868       0.04495259       0.50546626 </v>
    <v>       0.00027831       0.50233941       0.45947076 </v>
    <v>       0.54814061       0.00773043       0.01923581 </v>
    <v>       0.00093129       0.50146795       0.05819353 </v>
    <v>       0.31647508       0.01935051       0.52602254 </v>
    <v>       0.51898379       0.81586208       0.52256376 </v>
    <v>       0.70201888       0.88173892       0.50438911 </v>
    <v>       0.38263680       0.20274449       0.51005656 </v>
    <v>       0.63066570       0.13071324       0.49302808 </v>
    <v>       0.90834649       0.39599434       0.59076276 </v>
    <v>       0.11209435       0.59672937       0.58706132 </v>
    <v>       0.16192090       0.66055007       0.45908719 </v>
    <v>       0.83988513       0.34335491       0.46493600 </v>
    <v>       0.99336248       0.50631524       0.37225318 </v>
    <v>       0.32297364       0.98196829       0.98746381 </v>
    <v>       0.53752103       0.85035717       0.89985745 </v>
    <v>       0.71743135       0.89768344       0.94650655 </v>
    <v>       0.36901170       0.11102426       0.08715145 </v>
    <v>       0.62694249       0.07000435       0.06966843 </v>
    <v>       0.87810449       0.57723142       0.92921118 </v>
    <v>       0.10828545       0.41098070       0.92660526 </v>
    <v>       0.18528455       0.37157752       0.05230737 </v>
    <v>       0.81601160       0.63081072       0.05702375 </v>
    <v>       0.00649274       0.50683034       0.14544381 </v>
    <v>      -0.00030221      -0.00003687       0.00821190 </v>
    <v>       0.49982476       0.49967851       0.00835857 </v>
    <v>       0.69939217       0.19943489       0.75031573 </v>
    <v>       0.30120472       0.80118076       0.75023338 </v>
    <v>       0.80147038       0.69861169       0.74932694 </v>
    <v>       0.19881148       0.30109342       0.74942931 </v>
    <v>      -0.00029248      -0.00011910       0.50934219 </v>
    <v>       0.49997881       0.49967677       0.50931731 </v>
    <v>       0.73445225       0.23451735       0.24984076 </v>
    <v>       0.26572240       0.76579649       0.24975249 </v>
    <v>       0.76553535       0.73451388       0.24993470 </v>
    <v>       0.23431551       0.26577220       0.24996427 </v>
    <v>       0.59000290       0.90429899       0.51019507 </v>
    <v>       0.40464772       0.09033867       0.51299237 </v>
    <v>       0.09723890       0.59268054       0.50610452 </v>
    <v>       0.91047169       0.40814189       0.50950245 </v>
    <v>       0.60362570       0.90744045       0.95297214 </v>
    <v>       0.40406801       0.03782302       0.02937215 </v>
    <v>       0.10408319       0.42306824       0.00811560 </v>
    <v>       0.89137541       0.57410604       0.01059708 </v>
    <v>       0.00005376      -0.00064757       0.25341321 </v>
    <v>       0.50005174       0.50082387       0.25291602 </v>
    <v>      -0.00042281       0.00084409       0.75393024 </v>
    <v>       0.50020210       0.49881080       0.75437003 </v>
   </varray>
  </structure>
  <varray name="forces" >
   <v>      -0.13018221      -0.04588497       0.01746011 </v>
   <v>       0.01155112       0.00588868       0.08976294 </v>
   <v>      -0.05109125      -0.11219424      -0.11920645 </v>
   <v>       0.01848535      -0.02103500      -0.11806883 </v>
   <v>       0.11228513       0.07131724      -0.02470164 </v>
   <v>       0.09295879       0.10005174      -0.02525085 </v>
   <v>      -0.17262158       0.04667051       0.01250579 </v>
   <v>       0.04112430      -0.12121475       0.00151405 </v>
   <v>      -0.09883553      -0.07682325       0.01816994 </v>
   <v>       0.00864604       0.03693290      -0.32285582 </v>
   <v>      -0.04602487      -0.01552644      -0.32433822 </v>
   <v>      -0.10413801      -0.11133576       0.12991565 </v>
   <v>       0.12766544       0.11547269       0.12828364 </v>
   <v>       0.01725730      -0.00865705       0.28718725 </v>
   <v>       0.13880010       0.09816135       0.10693720 </v>
   <v>       0.11691188       0.12572385       0.15696856 </v>
   <v>      -0.18670321       0.03404477       0.02527627 </v>
   <v>       0.07573591      -0.14873436      -0.15906921 </v>
   <v>      -0.10782240      -0.09193858      -0.10658771 </v>
   <v>       0.03058349       0.00062725       0.31231869 </v>
   <v>      -0.01364342       0.03427576       0.30594360 </v>
   <v>      -0.13699141       0.08615963      -0.10456605 </v>
   <v>       0.14874921      -0.11239710      -0.13586887 </v>
   <v>      -0.00463199      -0.01877818      -0.28541560 </v>
   <v>      -0.05098157      -0.00862549      -0.02854328 </v>
   <v>      -0.02790899      -0.05417215       0.00142027 </v>
   <v>       0.12467561       0.12563894      -0.02331450 </v>
   <v>      -0.02140898      -0.02698153      -0.03312564 </v>
   <v>       0.01845875      -0.01906146      -0.21036206 </v>
   <v>       0.01306506      -0.02352794      -0.19484777 </v>
   <v>      -0.05049489      -0.02084226      -0.05255918 </v>
   <v>      -0.00627020      -0.05449264      -0.04695146 </v>
   <v>       0.07623855       0.08023687       0.19607467 </v>
   <v>      -0.05102755      -0.03313389       0.18116074 </v>
   <v>      -0.06274694       0.06887778       0.18668992 </v>
   <v>       0.05065768      -0.03277001       0.18829872 </v>
   <v>      -0.01917720       0.08233432       0.00617186 </v>
   <v>       0.17446898      -0.05545362      -0.00246215 </v>
   <v>      -0.06236684      -0.06909441       0.00894221 </v>
   <v>       0.05018562       0.04980087      -0.00028983 </v>
   <v>      -0.11177353       0.14490732       0.09129594 </v>
   <v>       0.12007771      -0.03620950       0.01134996 </v>
   <v>      -0.10262266       0.06657115       0.02703224 </v>
   <v>       0.05921868      -0.02870357       0.00676225 </v>
   <v>       0.00690042      -0.08671121      -0.09146220 </v>
   <v>       0.00610426       0.11765088      -0.18683550 </v>
   <v>      -0.05642700       0.12208591       0.01056272 </v>
   <v>       0.03508688      -0.17913105       0.08867765 </v>
  </varray>
  <varray name="stress" >
   <v>      -0.60637420       0.31440235      -0.25485918 </v>
   <v>       0.31428232      -1.10561236      -0.40380266 </v>
   <v>      -0.25469610      -0.40381817       2.14197167 </v>
  </varray>
  <energy>
   <i name="e_fr_energy">   -593.45740641 </i>
   <i name="e_wo_entrp">   -593.45740641 </i>
   <i name="e_0_energy">   -593.45740641 </i>
  </energy>
  <time name="totalsc">  160.47  160.63</time>
 </calculation>
 <calculation>
  <scstep>
   <time name="total">   12.89   12.89</time>
   <energy>
    <i name="alphaZ">    116.86189639 </i>
    <i name="ewald">  -4634.08923768 </i>
    <i name="hartreedc">  -2329.13499931 </i>
    <i name="XCdc">   -143.82564013 </i>
    <i name="pawpsdc">  13151.88731352 </i>
    <i name="pawaedc"> -12851.58784007 </i>
    <i name="eentropy">     -0.00000000 </i>
    <i name="bandstr">  -1024.99204274 </i>
    <i name="atom">   7121.46799656 </i>
    <i name="e_fr_energy">   -593.41255345 </i>
    <i name="e_wo_entrp">   -593.41255345 </i>
    <i name="e_0_energy">   -593.41255345 </i>
   </energy>
  </scstep>
  <scstep>
   <time name="total">   12.85   12.86</time>
   <energy>
    <i name="e_fr_energy">   -593.45176635 </i>
    <i name="e_wo_entrp">   -593.45176635 </i>
    <i name="e_0_energy">   -593.45176635 </i>
   </energy>
  </scstep>
  <scstep>
   <time name="total">   12.85   12.86</time>
   <energy>
    <i name="e_fr_energy">   -593.46073958 </i>
    <i name="e_wo_entrp">   -593.46073958 </i>
    <i name="e_0_energy">   -593.46073958 </i>
   </energy>
  </scstep>
  <scstep>
   <time name="total">   12.88   12.89</time>
   <energy>
    <i name="e_fr_energy">   -593.46270559 </i>
    <i name="e_wo_entrp">   -593.46270559 </i>
    <i name="e_0_energy">   -593.46270559 </i>
   </energy>
  </scstep>
  <scstep>
   <time name="total">   12.88   12.89</time>
   <energy>
    <i name="e_fr_energy">   -593.46323603 </i>
    <i name="e_wo_entrp">   -593.46323603 </i>
    <i name="e_0_energy">   -593.46323603 </i>
   </energy>
  </scstep>
  <scstep>
   <time name="total">   12.88   12.89</time>
   <energy>
    <i name="e_fr_energy">   -593.46343720 </i>
    <i name="e_wo_entrp">   -593.46343720 </i>
    <i name="e_0_energy">   -593.46343720 </i>
   </energy>
  </scstep>
  <scstep>
   <time name="total">   12.88   12.88</time>
   <energy>
    <i name="e_fr_energy">   -593.46349076 </i>
    <i name="e_wo_entrp">   -593.46349076 </i>
    <i name="e_0_energy">   -593.46349076 </i>
   </energy>
  </scstep>
  <scstep>
   <time name="total">   12.85   12.86</time>
   <energy>
    <i name="e_fr_energy">   -593.46350264 </i>
    <i name="e_wo_entrp">   -593.46350264 </i>
    <i name="e_0_energy">   -593.46350264 </i>
   </energy>
  </scstep>
  <scstep>
   <time name="total">   14.88   14.89</time>
   <energy>
    <i name="alphaZ">    116.86189639 </i>
    <i name="ewald">  -4634.08923768 </i>
    <i name="hartreedc">  -2333.41627453 </i>
    <i name="XCdc">   -143.54010506 </i>
    <i name="pawpsdc">  12892.80807679 </i>
    <i name="pawaedc"> -12592.63322338 </i>
    <i name="eentropy">     -0.00000000 </i>
    <i name="bandstr">  -1020.92263506 </i>
    <i name="atom">   7121.46799656 </i>
    <i name="e_fr_energy">   -593.46350596 </i>
    <i name="e_wo_entrp">   -593.46350596 </i>
    <i name="e_0_energy">   -593.46350596 </i>
   </energy>
  </scstep>
  <structure>
   <crystal>
    <varray name="basis" >
     <v>       8.89003146      -0.00217526      -0.00307549 </v>
     <v>      -0.00217664       8.87105950       0.00595664 </v>
     <v>      -0.00431587       0.00836201      12.53734475 </v>
    </varray>
    <i name="volume">    988.74451172 </i>
    <varray name="rec_basis" >
     <v>       0.11248556       0.00002757       0.00003870 </v>
     <v>       0.00002756       0.11272616      -0.00007518 </v>
     <v>       0.00002758      -0.00005355       0.07976175 </v>
    </varray>
   </crystal>
   <varray name="positions" >
    <v>       0.54494629       0.04495696       0.50546677 </v>
    <v>       0.00028269       0.50234070       0.45947367 </v>
    <v>       0.54812968       0.00773550       0.01924351 </v>
    <v>       0.00093919       0.50146404       0.05819709 </v>
    <v>       0.31648076       0.01935801       0.52601624 </v>
    <v>       0.51897907       0.81585649       0.52255737 </v>
    <v>       0.70201369       0.88174410       0.50438713 </v>
    <v>       0.38263434       0.20274402       0.51005766 </v>
    <v>       0.63067252       0.13071082       0.49302610 </v>
    <v>       0.90834753       0.39599039       0.59076182 </v>
    <v>       0.11209071       0.59672694       0.58706236 </v>
    <v>       0.16192156       0.66055685       0.45908775 </v>
    <v>       0.83988361       0.34335034       0.46493112 </v>
    <v>       0.99336216       0.50631466       0.37225046 </v>
    <v>       0.32297667       0.98196737       0.98746591 </v>
    <v>       0.53751302       0.85034694       0.89985478 </v>
    <v>       0.71744524       0.89768119       0.94650357 </v>
    <v>       0.36901842       0.11101977       0.08714352 </v>
    <v>       0.62694557       0.07001211       0.06966293 </v>
    <v>       0.87810027       0.57722719       0.92920230 </v>
    <v>       0.10828720       0.41098419       0.92660989 </v>
    <v>       0.18528856       0.37157874       0.05231669 </v>
    <v>       0.81600611       0.63081402       0.05703118 </v>
    <v>       0.00648957       0.50683412       0.14545237 </v>
    <v>      -0.00041824      -0.00005103       0.00815904 </v>
    <v>       0.49975748       0.49955489       0.00836188 </v>
    <v>       0.69965791       0.19971750       0.75028344 </v>
    <v>       0.30116811       0.80113496       0.75016964 </v>
    <v>       0.80153564       0.69857803       0.74891642 </v>
    <v>       0.19885413       0.30101426       0.74905796 </v>
    <v>      -0.00040481      -0.00016481       0.50920529 </v>
    <v>       0.49997060       0.49955260       0.50917094 </v>
    <v>       0.73461449       0.23470452       0.25016240 </v>
    <v>       0.26562744       0.76572958       0.25004039 </v>
    <v>       0.76536867       0.73469964       0.25029221 </v>
    <v>       0.23442522       0.26569592       0.25033324 </v>
    <v>       0.59000638       0.90430353       0.51019961 </v>
    <v>       0.40464163       0.09032587       0.51299395 </v>
    <v>       0.09724190       0.59268237       0.50610476 </v>
    <v>       0.91046927       0.40814793       0.50950423 </v>
    <v>       0.60362549       0.90744422       0.95297533 </v>
    <v>       0.40405872       0.03783239       0.02937537 </v>
    <v>       0.10408265       0.42305488       0.00811537 </v>
    <v>       0.89138140       0.57412171       0.01060292 </v>
    <v>       0.00007430      -0.00089643       0.25326531 </v>
    <v>       0.50007154       0.50114085       0.25257771 </v>
    <v>      -0.00058503       0.00116852       0.75401818 </v>
    <v>       0.50027969       0.49835344       0.75462655 </v>
   </varray>
  </structure>
  <varray name="forces" >
   <v>      -0.17821688      -0.06474161       0.02425429 </v>
   <v>       0.01496416       0.00759825       0.12503410 </v>
   <v>      -0.06934244      -0.15443311      -0.16476468 </v>
   <v>       0.02353923      -0.02780517      -0.16370493 </v>
   <v>       0.15425542       0.09711748      -0.03264236 </v>
   <v>       0.12926416       0.13921588      -0.03330090 </v>
   <v>      -0.23712338       0.06341043       0.01782358 </v>
   <v>       0.05726234      -0.16740086       0.00174363 </v>
   <v>      -0.13778855      -0.10570602       0.02558638 </v>
   <v>       0.01174115       0.05130117      -0.44370535 </v>
   <v>      -0.06230942      -0.02085718      -0.44604113 </v>
   <v>      -0.14368827      -0.15455269       0.17913323 </v>
   <v>       0.17621040       0.15989676       0.17812867 </v>
   <v>       0.02366249      -0.01170580       0.39526192 </v>
   <v>       0.19077945       0.13537668       0.14715441 </v>
   <v>       0.16217546       0.17472044       0.21663933 </v>
   <v>      -0.25975965       0.04738634       0.03560350 </v>
   <v>       0.10318905      -0.20408737      -0.21723790 </v>
   <v>      -0.14928153      -0.12816473      -0.14565619 </v>
   <v>       0.04267217       0.00168304       0.43102970 </v>
   <v>      -0.01916133       0.04662719       0.41940909 </v>
   <v>      -0.18949928       0.11853938      -0.14681261 </v>
   <v>       0.20571113      -0.15524502      -0.18936327 </v>
   <v>      -0.00569078      -0.02652520      -0.39386065 </v>
   <v>      -0.04912488      -0.00970688      -0.02488568 </v>
   <v>      -0.02677625      -0.05183609       0.00263943 </v>
   <v>       0.12286964       0.12150898      -0.02777014 </v>
   <v>      -0.02143060      -0.02826547      -0.03341753 </v>
   <v>       0.01227432      -0.01828935      -0.19073337 </v>
   <v>       0.01194961      -0.01999563      -0.17980549 </v>
   <v>      -0.04950137      -0.02067177      -0.03946923 </v>
   <v>      -0.00740030      -0.05234883      -0.02952565 </v>
   <v>       0.07563758       0.07703589       0.19186101 </v>
   <v>      -0.05233620      -0.03294143       0.17949205 </v>
   <v>      -0.05742703       0.06247264       0.17049979 </v>
   <v>       0.05051310      -0.03256726       0.16932490 </v>
   <v>      -0.02780755       0.11281230       0.00792923 </v>
   <v>       0.24060301      -0.07425333      -0.00359463 </v>
   <v>      -0.08621247      -0.09509798       0.00989604 </v>
   <v>       0.06979854       0.06773383      -0.00329378 </v>
   <v>      -0.15330723       0.19758088       0.12408108 </v>
   <v>       0.16670682      -0.05217471       0.01567571 </v>
   <v>      -0.14016376       0.09368425       0.03998273 </v>
   <v>       0.08074542      -0.04231973       0.01073407 </v>
   <v>       0.00609147      -0.07483804      -0.08740924 </v>
   <v>       0.00485840       0.10551029      -0.17164810 </v>
   <v>      -0.04859011       0.10991466      -0.00812715 </v>
   <v>       0.03446472      -0.16459551       0.05785209 </v>
  </varray>
  <varray name="stress" >
   <v>      -3.41613339       0.53063318      -0.19519224 </v>
   <v>       0.53054319      -3.15058688      -0.84852994 </v>
   <v>      -0.19503497      -0.84855370      -1.63260357 </v>
  </varray>
  <energy>
   <i name="e_fr_energy">   -593.46350596 </i>
   <i name="e_wo_entrp">   -593.46350596 </i>
   <i name="e_0_energy">   -593.46350596 </i>
  </energy>
  <time name="totalsc">  134.85  134.99</time>
 </calculation>
 <calculation>
  <scstep>
   <time name="total">   12.84   12.84</time>
   <energy>
    <i name="alphaZ">    116.27824881 </i>
    <i name="ewald">  -4613.61605751 </i>
    <i name="hartreedc">  -2335.49608325 </i>
    <i name="XCdc">   -144.02196714 </i>
    <i name="pawpsdc">  13100.84811413 </i>
    <i name="pawaedc"> -12800.53411697 </i>
    <i name="eentropy">     -0.00000000 </i>
    <i name="bandstr">  -1038.22977752 </i>
    <i name="atom">   7121.46799656 </i>
    <i name="e_fr_energy">   -593.30364289 </i>
    <i name="e_wo_entrp">   -593.30364289 </i>
    <i name="e_0_energy">   -593.30364289 </i>
   </energy>
  </scstep>
  <scstep>
   <time name="total">   12.88   12.88</time>
   <energy>
    <i name="e_fr_energy">   -593.45818306 </i>
    <i name="e_wo_entrp">   -593.45818306 </i>
    <i name="e_0_energy">   -593.45818306 </i>
   </energy>
  </scstep>
  <scstep>
   <time name="total">   12.85   12.86</time>
   <energy>
    <i name="e_fr_energy">   -593.49936475 </i>
    <i name="e_wo_entrp">   -593.49936475 </i>
    <i name="e_0_energy">   -593.49936475 </i>
   </energy>
  </scstep>
  <scstep>
   <time name="total">   12.85   12.85</time>
   <energy>
    <i name="e_fr_energy">   -593.50682697 </i>
    <i name="e_wo_entrp">   -593.50682697 </i>
    <i name="e_0_energy">   -593.50682697 </i>
   </energy>
  </scstep>
  <scstep>
   <time name="total">   12.83   12.84</time>
   <energy>
    <i name="e_fr_energy">   -593.50869662 </i>
    <i name="e_wo_entrp">   -593.50869662 </i>
    <i name="e_0_energy">   -593.50869662 </i>
   </energy>
  </scstep>
  <scstep>
   <time name="total">   12.84   12.86</time>
   <energy>
    <i name="e_fr_energy">   -593.50926185 </i>
    <i name="e_wo_entrp">   -593.50926185 </i>
    <i name="e_0_energy">   -593.50926185 </i>
   </energy>
  </scstep>
  <scstep>
   <time name="total">   12.87   12.87</time>
   <energy>
    <i name="e_fr_energy">   -593.50944038 </i>
    <i name="e_wo_entrp">   -593.50944038 </i>
    <i name="e_0_energy">   -593.50944038 </i>
   </energy>
  </scstep>
  <scstep>
   <time name="total">   12.87   12.88</time>
   <energy>
    <i name="e_fr_energy">   -593.50949063 </i>
    <i name="e_wo_entrp">   -593.50949063 </i>
    <i name="e_0_energy">   -593.50949063 </i>
   </energy>
  </scstep>
  <scstep>
   <time name="total">   12.83   12.84</time>
   <energy>
    <i name="e_fr_energy">   -593.50950267 </i>
    <i name="e_wo_entrp">   -593.50950267 </i>
    <i name="e_0_energy">   -593.50950267 </i>
   </energy>
  </scstep>
  <scstep>
   <time name="total">   14.86   14.87</time>
   <energy>
    <i name="alphaZ">    116.27824881 </i>
    <i name="ewald">  -4613.61605751 </i>
    <i name="hartreedc">  -2346.22337717 </i>
    <i name="XCdc">   -143.42966534 </i>
    <i name="pawpsdc">  12916.76239895 </i>
    <i name="pawaedc"> -12616.57558290 </i>
    <i name="eentropy">     -0.00000000 </i>
    <i name="bandstr">  -1028.17346730 </i>
    <i name="atom">   7121.46799656 </i>
    <i name="e_fr_energy">   -593.50950591 </i>
    <i name="e_wo_entrp">   -593.50950591 </i>
    <i name="e_0_energy">   -593.50950591 </i>
   </energy>
  </scstep>
  <structure>
   <crystal>
    <varray name="basis" >
     <v>       8.90089528      -0.00180935      -0.00456516 </v>
     <v>      -0.00181456       8.87589225       0.00624835 </v>
     <v>      -0.00640648       0.00875077      12.57804558 </v>
    </varray>
    <i name="volume">    993.70742050 </i>
    <varray name="rec_basis" >
     <v>       0.11234828       0.00002293       0.00005721 </v>
     <v>       0.00002286       0.11266479      -0.00007837 </v>
     <v>       0.00004077      -0.00005596       0.07950367 </v>
    </varray>
   </crystal>
   <varray name="positions" >
    <v>       0.54457251       0.04482725       0.50550315 </v>
    <v>       0.00031934       0.50235796       0.45966172 </v>
    <v>       0.54797167       0.00741996       0.01901006 </v>
    <v>       0.00099780       0.50140146       0.05796000 </v>
    <v>       0.31680875       0.01956993       0.52596029 </v>
    <v>       0.51924224       0.81613995       0.52250026 </v>
    <v>       0.70151394       0.88188259       0.50441080 </v>
    <v>       0.38275036       0.20239442       0.51006179 </v>
    <v>       0.63039423       0.13048732       0.49306144 </v>
    <v>       0.90837296       0.39609309       0.59010601 </v>
    <v>       0.11195622       0.59668103       0.58640558 </v>
    <v>       0.16162347       0.66024267       0.45935281 </v>
    <v>       0.84024856       0.34367793       0.46518783 </v>
    <v>       0.99341128       0.50628899       0.37283028 </v>
    <v>       0.32337754       0.98224839       0.98768557 </v>
    <v>       0.53784079       0.85069836       0.90017101 </v>
    <v>       0.71692202       0.89777702       0.94655224 </v>
    <v>       0.36924116       0.11058903       0.08681348 </v>
    <v>       0.62663862       0.06975462       0.06944130 </v>
    <v>       0.87818415       0.57722488       0.92982726 </v>
    <v>       0.10824983       0.41108514       0.92723431 </v>
    <v>       0.18489921       0.37182751       0.05211140 </v>
    <v>       0.81642711       0.63049477       0.05676124 </v>
    <v>       0.00647351       0.50678405       0.14488190 </v>
    <v>      -0.00066407      -0.00008878       0.00805698 </v>
    <v>       0.49961846       0.49929372       0.00836992 </v>
    <v>       0.70024248       0.20032093       0.75020248 </v>
    <v>       0.30107817       0.80101935       0.75004159 </v>
    <v>       0.80164171       0.69849862       0.74812769 </v>
    <v>       0.19893156       0.30087493       0.74833377 </v>
    <v>      -0.00064688      -0.00026446       0.50897786 </v>
    <v>       0.49994496       0.49928978       0.50894654 </v>
    <v>       0.73497288       0.23509660       0.25084292 </v>
    <v>       0.26540119       0.76557765       0.25066104 </v>
    <v>       0.76504313       0.73505953       0.25098549 </v>
    <v>       0.23466625       0.26553324       0.25103915 </v>
    <v>       0.58995288       0.90454434       0.51021679 </v>
    <v>       0.40513466       0.09015533       0.51299080 </v>
    <v>       0.09706619       0.59248629       0.50611972 </v>
    <v>       0.91061154       0.40829668       0.50950155 </v>
    <v>       0.60330644       0.90786060       0.95316205 </v>
    <v>       0.40439407       0.03773526       0.02940261 </v>
    <v>       0.10379041       0.42323354       0.00817390 </v>
    <v>       0.89155681       0.57405290       0.01062605 </v>
    <v>       0.00011225      -0.00136045       0.25295368 </v>
    <v>       0.50010605       0.50175369       0.25190618 </v>
    <v>      -0.00088678       0.00179937       0.75411469 </v>
    <v>       0.50044737       0.49744378       0.75502920 </v>
   </varray>
  </structure>
  <varray name="forces" >
   <v>       0.16152462      -0.01036728      -0.01742588 </v>
   <v>      -0.02114882      -0.02776739       0.12187106 </v>
   <v>      -0.01146661       0.10113893       0.09926298 </v>
   <v>      -0.06315949       0.03992154      -0.07471507 </v>
   <v>       0.15703437       0.07529520      -0.03197722 </v>
   <v>       0.09404526       0.09474357      -0.02380883 </v>
   <v>      -0.13472902       0.06551144       0.00868085 </v>
   <v>       0.08238312      -0.13807154      -0.00562563 </v>
   <v>      -0.16240848      -0.11520546       0.02984006 </v>
   <v>       0.01679094       0.04155246      -0.24924129 </v>
   <v>      -0.04292888      -0.02021488      -0.23840914 </v>
   <v>      -0.11698567      -0.12753797       0.14843611 </v>
   <v>       0.11620208       0.10656913       0.11843292 </v>
   <v>       0.02064799      -0.01154108       0.34822081 </v>
   <v>       0.13813281       0.09575088       0.10365039 </v>
   <v>       0.08405988       0.13211078       0.16027225 </v>
   <v>      -0.24236422       0.06647283       0.05628033 </v>
   <v>       0.10359815      -0.13395845      -0.13449412 </v>
   <v>      -0.15758124      -0.15130389      -0.16811656 </v>
   <v>       0.02784752       0.00422613       0.26918670 </v>
   <v>      -0.02765085       0.04134664       0.27863508 </v>
   <v>      -0.15647005       0.09702842      -0.10628531 </v>
   <v>       0.13852745      -0.10414124      -0.12135797 </v>
   <v>      -0.00005404      -0.02997336      -0.36741943 </v>
   <v>      -0.04659494      -0.00934763      -0.02431559 </v>
   <v>      -0.02455349      -0.04864183      -0.00314016 </v>
   <v>       0.11672910       0.11374880      -0.02039747 </v>
   <v>      -0.02365761      -0.02903398      -0.02435163 </v>
   <v>       0.00555187      -0.01758300      -0.15145481 </v>
   <v>       0.00773293      -0.01376435      -0.14770677 </v>
   <v>      -0.04365685      -0.01840874      -0.02235136 </v>
   <v>      -0.00842684      -0.05121182      -0.00603932 </v>
   <v>       0.07269359       0.07216983       0.17286949 </v>
   <v>      -0.05293932      -0.03249398       0.16570147 </v>
   <v>      -0.04699806       0.05259828       0.13980604 </v>
   <v>       0.04611404      -0.02822513       0.13599051 </v>
   <v>      -0.10004502       0.03268931       0.02013413 </v>
   <v>      -0.10148390      -0.00436895       0.03050396 </v>
   <v>      -0.06500398      -0.06094881      -0.12807620 </v>
   <v>       0.09737753       0.10497389      -0.12553620 </v>
   <v>       0.01011296      -0.00229981      -0.06183289 </v>
   <v>       0.06761559      -0.08872853      -0.04345213 </v>
   <v>      -0.03206178       0.01771096       0.05677245 </v>
   <v>       0.11075855      -0.05985577       0.06855056 </v>
   <v>       0.00172573      -0.05119974      -0.07600128 </v>
   <v>       0.00467288       0.08054107      -0.13875946 </v>
   <v>      -0.03191972       0.08542099      -0.03230453 </v>
   <v>       0.03240991      -0.13532648       0.01149809 </v>
  </varray>
  <varray name="stress" >
   <v>      -2.32848252       0.19456203      -0.23981429 </v>
   <v>       0.19447025      -2.59326796      -0.38789354 </v>
   <v>      -0.23964641      -0.38791120      -1.42899045 </v>
  </varray>
  <energy>
   <i name="e_fr_energy">   -593.50950591 </i>
   <i name="e_wo_entrp">   -593.50950591 </i>
   <i name="e_0_energy">   -593.50950591 </i>
  </energy>
  <time name="totalsc">  147.54  147.64</time>
 </calculation>
 <calculation>
  <scstep>
   <time name="total">   12.87   12.87</time>
   <energy>
    <i name="alphaZ">    115.16983707 </i>
    <i name="ewald">  -4573.94021063 </i>
    <i name="hartreedc">  -2350.11127226 </i>
    <i name="XCdc">   -144.36565652 </i>
    <i name="pawpsdc">  13375.43632238 </i>
    <i name="pawaedc"> -13074.99161661 </i>
    <i name="eentropy">     -0.00000000 </i>
    <i name="bandstr">  -1061.45080032 </i>
    <i name="atom">   7121.46799656 </i>
    <i name="e_fr_energy">   -592.78540034 </i>
    <i name="e_wo_entrp">   -592.78540034 </i>
    <i name="e_0_energy">   -592.78540034 </i>
   </energy>
  </scstep>
  <scstep>
   <time name="total">   12.88   12.88</time>
   <energy>
    <i name="e_fr_energy">   -593.35464107 </i>
    <i name="e_wo_entrp">   -593.35464107 </i>
    <i name="e_0_energy">   -593.35464107 </i>
   </energy>
  </scstep>
  <scstep>
   <time name="total">   12.84   12.85</time>
   <energy>
    <i name="e_fr_energy">   -593.50725210 </i>
    <i name="e_wo_entrp">   -593.50725210 </i>
    <i name="e_0_energy">   -593.50725210 </i>
   </energy>
  </scstep>
  <scstep>
   <time name="total">   12.87   12.87</time>
   <energy>
    <i name="e_fr_energy">   -593.53504782 </i>
    <i name="e_wo_entrp">   -593.53504782 </i>
    <i name="e_0_energy">   -593.53504782 </i>
   </energy>
  </scstep>
  <scstep>
   <time name="total">   12.85   12.86</time>
   <energy>
    <i name="e_fr_energy">   -593.54207831 </i>
    <i name="e_wo_entrp">   -593.54207831 </i>
    <i name="e_0_energy">   -593.54207831 </i>
   </energy>
  </scstep>
  <scstep>
   <time name="total">   12.85   12.86</time>
   <energy>
    <i name="e_fr_energy">   -593.54417735 </i>
    <i name="e_wo_entrp">   -593.54417735 </i>
    <i name="e_0_energy">   -593.54417735 </i>
   </energy>
  </scstep>
  <scstep>
   <time name="total">   12.89   12.89</time>
   <energy>
    <i name="e_fr_energy">   -593.54483873 </i>
    <i name="e_wo_entrp">   -593.54483873 </i>
    <i name="e_0_energy">   -593.54483873 </i>
   </energy>
  </scstep>
  <scstep>
   <time name="total">   12.87   12.88</time>
   <energy>
    <i name="e_fr_energy">   -593.54503187 </i>
    <i name="e_wo_entrp">   -593.54503187 </i>
    <i name="e_0_energy">   -593.54503187 </i>
   </energy>
  </scstep>
  <scstep>
   <time name="total">   12.88   12.89</time>
   <energy>
    <i name="e_fr_energy">   -593.54507774 </i>
    <i name="e_wo_entrp">   -593.54507774 </i>
    <i name="e_0_energy">   -593.54507774 </i>
   </energy>
  </scstep>
  <scstep>
   <time name="total">   12.86   12.87</time>
   <energy>
    <i name="e_fr_energy">   -593.54508917 </i>
    <i name="e_wo_entrp">   -593.54508917 </i>
    <i name="e_0_energy">   -593.54508917 </i>
   </energy>
  </scstep>
  <scstep>
   <time name="total">   14.89   14.90</time>
   <energy>
    <i name="alphaZ">    115.16983707 </i>
    <i name="ewald">  -4573.94021063 </i>
    <i name="hartreedc">  -2371.20848969 </i>
    <i name="XCdc">   -143.20265829 </i>
    <i name="pawpsdc">  12964.28201925 </i>
    <i name="pawaedc"> -12664.07510839 </i>
    <i name="eentropy">     -0.00000000 </i>
    <i name="bandstr">  -1042.03847781 </i>
    <i name="atom">   7121.46799656 </i>
    <i name="e_fr_energy">   -593.54509193 </i>
    <i name="e_wo_entrp">   -593.54509193 </i>
    <i name="e_0_energy">   -593.54509193 </i>
   </energy>
  </scstep>
  <structure>
   <crystal>
    <varray name="basis" >
     <v>       8.92175259      -0.00110685      -0.00742516 </v>
     <v>      -0.00111941       8.88517061       0.00680838 </v>
     <v>      -0.01042021       0.00949715      12.65618663 </v>
    </varray>
    <i name="volume">   1003.27100943 </i>
    <varray name="rec_basis" >
     <v>       0.11208568       0.00001405       0.00009227 </v>
     <v>       0.00001389       0.11254715      -0.00008444 </v>
     <v>       0.00006575      -0.00006054       0.07901284 </v>
    </varray>
   </crystal>
   <varray name="positions" >
    <v>       0.54385581       0.04457840       0.50557269 </v>
    <v>       0.00038970       0.50239108       0.46002160 </v>
    <v>       0.54766861       0.00681453       0.01856329 </v>
    <v>       0.00111010       0.50128141       0.05750630 </v>
    <v>       0.31743766       0.01997654       0.52585327 </v>
    <v>       0.51974682       0.81668387       0.52239103 </v>
    <v>       0.70055565       0.88214836       0.50445597 </v>
    <v>       0.38297285       0.20172359       0.51006973 </v>
    <v>       0.62986065       0.13005846       0.49312901 </v>
    <v>       0.90842141       0.39629021       0.58885099 </v>
    <v>       0.11169805       0.59659301       0.58514868 </v>
    <v>       0.16105199       0.65963981       0.45985998 </v>
    <v>       0.84094847       0.34430646       0.46567916 </v>
    <v>       0.99350572       0.50623969       0.37393986 </v>
    <v>       0.32414630       0.98278757       0.98810602 </v>
    <v>       0.53846940       0.85137263       0.90077624 </v>
    <v>       0.71591873       0.89796094       0.94664524 </v>
    <v>       0.36966816       0.10976253       0.08618196 </v>
    <v>       0.62604995       0.06926058       0.06901710 </v>
    <v>       0.87834528       0.57722039       0.93102324 </v>
    <v>       0.10817843       0.41127880       0.92842925 </v>
    <v>       0.18415249       0.37230491       0.05171843 </v>
    <v>       0.81723430       0.62988217       0.05624476 </v>
    <v>       0.00644246       0.50668801       0.14379020 </v>
    <v>      -0.00113551      -0.00016120       0.00786162 </v>
    <v>       0.49935192       0.49879258       0.00838528 </v>
    <v>       0.70136332       0.20147876       0.75004766 </v>
    <v>       0.30090566       0.80079755       0.74979651 </v>
    <v>       0.80184477       0.69834631       0.74661833 </v>
    <v>       0.19907973       0.30060763       0.74694793 </v>
    <v>      -0.00111116      -0.00045563       0.50854257 </v>
    <v>       0.49989572       0.49878549       0.50851711 </v>
    <v>       0.73566038       0.23584885       0.25214529 </v>
    <v>       0.26496764       0.76528610       0.25184872 </v>
    <v>       0.76441919       0.73575006       0.25231210 </v>
    <v>       0.23512876       0.26522101       0.25239010 </v>
    <v>       0.58985030       0.90500644       0.51024965 </v>
    <v>       0.40608008       0.08982804       0.51298489 </v>
    <v>       0.09672929       0.59211006       0.50614830 </v>
    <v>       0.91088433       0.40858210       0.50949643 </v>
    <v>       0.60269470       0.90865959       0.95351929 </v>
    <v>       0.40503713       0.03754886       0.02945482 </v>
    <v>       0.10323006       0.42357638       0.00828584 </v>
    <v>       0.89189317       0.57392084       0.01067036 </v>
    <v>       0.00018492      -0.00225081       0.25235736 </v>
    <v>       0.50017188       0.50292969       0.25062109 </v>
    <v>      -0.00146540       0.00300990       0.75429927 </v>
    <v>       0.50076917       0.49569824       0.75579983 </v>
   </varray>
  </structure>
  <varray name="forces" >
   <v>       0.84305622       0.08106796      -0.09965175 </v>
   <v>      -0.09205413      -0.09711878       0.11829260 </v>
   <v>       0.08414965       0.60948411       0.62753381 </v>
   <v>      -0.23603070       0.17484913       0.10108046 </v>
   <v>       0.16392138       0.03434034      -0.03099794 </v>
   <v>       0.02620746       0.00899694      -0.00560287 </v>
   <v>       0.06611936       0.06853826      -0.00972794 </v>
   <v>       0.13074142      -0.08343168      -0.01981668 </v>
   <v>      -0.20935914      -0.13311779       0.03769786 </v>
[...]
       <r>    4.2660    0.0000 </r>
       <r>    4.3472    0.0000 </r>
       <r>    4.3687    0.0000 </r>
       <r>    4.4079    0.0000 </r>
       <r>    4.6389    0.0000 </r>
       <r>    4.6679    0.0000 </r>
       <r>    4.7393    0.0000 </r>
       <r>    4.8968    0.0000 </r>
       <r>    5.1166    0.0000 </r>
       <r>    5.3224    0.0000 </r>
       <r>    5.6451    0.0000 </r>
       <r>    5.9822    0.0000 </r>
       <r>    6.0738    0.0000 </r>
       <r>    6.1534    0.0000 </r>
       <r>    6.2872    0.0000 </r>
       <r>    6.5657    0.0000 </r>
       <r>    6.5964    0.0000 </r>
       <r>    6.6507    0.0000 </r>
       <r>    6.7253    0.0000 </r>
       <r>    6.8235    0.0000 </r>
       <r>    6.9441    0.0000 </r>
       <r>    7.0334    0.0000 </r>
       <r>    7.1488    0.0000 </r>
       <r>    7.1842    0.0000 </r>
       <r>    7.3331    0.0000 </r>
       <r>    7.3852    0.0000 </r>
       <r>    7.4632    0.0000 </r>
       <r>    7.5534    0.0000 </r>
      </set>
     </set>
    </set>
   </array>
  </eigenvalues>
  <separator name="orbital magnetization" >
   <v name="MAGDIPOLOUT">      0.00000000      0.00000000      0.00000000</v>
  </separator>
  <dos>
   <i name="efermi">      1.93806146 </i>
   <total>
    <array>
     <dimension dim="1">gridpoints</dimension>
     <dimension dim="2">spin</dimension>
     <field>energy</field>
     <field>total</field>
     <field>integrated</field>
     <set>
      <set comment="spin 1">
       <r>   -22.1700     0.0000     0.0000 </r>
       <r>   -22.0661     0.0000     0.0000 </r>
       <r>   -21.9623     0.0000     0.0000 </r>
       <r>   -21.8584     0.0000     0.0000 </r>
       <r>   -21.7545     0.0000     0.0000 </r>
       <r>   -21.6506     0.0000     0.0000 </r>
       <r>   -21.5467     0.0000     0.0000 </r>
       <r>   -21.4428     0.0000     0.0000 </r>
       <r>   -21.3389     0.0000     0.0000 </r>
       <r>   -21.2351     0.0000     0.0000 </r>
       <r>   -21.1312     0.0000     0.0000 </r>
       <r>   -21.0273     0.0000     0.0000 </r>
       <r>   -20.9234     0.0000     0.0000 </r>
       <r>   -20.8195     0.6300     0.0655 </r>
       <r>   -20.7156    32.3186     3.4229 </r>
       <r>   -20.6117    31.1580     6.6598 </r>
       <r>   -20.5079    12.7866     7.9881 </r>
       <r>   -20.4040     0.1141     8.0000 </r>
       <r>   -20.3001     0.0000     8.0000 </r>
       <r>   -20.1962     0.0000     8.0000 </r>
       <r>   -20.0923     0.0000     8.0000 </r>
       <r>   -19.9884     0.0000     8.0000 </r>
       <r>   -19.8845     0.0000     8.0000 </r>
       <r>   -19.7807     0.0000     8.0000 </r>
       <r>   -19.6768     0.0000     8.0000 </r>
       <r>   -19.5729     0.0000     8.0000 </r>
       <r>   -19.4690     0.0000     8.0000 </r>
       <r>   -19.3651     0.0000     8.0000 </r>
       <r>   -19.2612     0.0000     8.0000 </r>
       <r>   -19.1573     0.0000     8.0000 </r>
       <r>   -19.0534     0.0000     8.0000 </r>
       <r>   -18.9496     0.0000     8.0000 </r>
       <r>   -18.8457     0.0000     8.0000 </r>
       <r>   -18.7418     0.0000     8.0000 </r>
       <r>   -18.6379     0.0000     8.0000 </r>
       <r>   -18.5340     0.0025     8.0003 </r>
       <r>   -18.4301     8.5830     8.8919 </r>
       <r>   -18.3262    48.1831    13.8975 </r>
       <r>   -18.2224    18.1803    15.7862 </r>
       <r>   -18.1185     2.0582    16.0000 </r>
       <r>   -18.0146     0.0003    16.0000 </r>
       <r>   -17.9107     0.0000    16.0000 </r>
       <r>   -17.8068     0.0000    16.0000 </r>
       <r>   -17.7029     0.0000    16.0000 </r>
       <r>   -17.5990     0.0000    16.0000 </r>
       <r>   -17.4952     0.0000    16.0000 </r>
       <r>   -17.3913     0.0000    16.0000 </r>
       <r>   -17.2874     0.0000    16.0000 </r>
       <r>   -17.1835     0.0000    16.0000 </r>
       <r>   -17.0796     0.0000    16.0000 </r>
       <r>   -16.9757     0.0000    16.0000 </r>
       <r>   -16.8718     0.0000    16.0000 </r>
       <r>   -16.7679     0.0000    16.0000 </r>
       <r>   -16.6641     0.0000    16.0000 </r>
       <r>   -16.5602     0.0000    16.0000 </r>
       <r>   -16.4563     0.0000    16.0000 </r>
       <r>   -16.3524     0.0000    16.0000 </r>
       <r>   -16.2485     0.0000    16.0000 </r>
       <r>   -16.1446     0.0000    16.0000 </r>
       <r>   -16.0407     0.0000    16.0000 </r>
       <r>   -15.9369     0.0000    16.0000 </r>
       <r>   -15.8330     0.0000    16.0000 </r>
       <r>   -15.7291     0.0000    16.0000 </r>
       <r>   -15.6252     0.0000    16.0000 </r>
       <r>   -15.5213     0.0000    16.0000 </r>
       <r>   -15.4174     0.0000    16.0000 </r>
       <r>   -15.3135     0.0000    16.0000 </r>
       <r>   -15.2097     0.0000    16.0000 </r>
       <r>   -15.1058     0.0000    16.0000 </r>
       <r>   -15.0019     0.0000    16.0000 </r>
       <r>   -14.8980     0.0000    16.0000 </r>
       <r>   -14.7941     0.0000    16.0000 </r>
       <r>   -14.6902     0.0000    16.0000 </r>
       <r>   -14.5863     0.0000    16.0000 </r>
       <r>   -14.4825     0.0000    16.0000 </r>
       <r>   -14.3786     0.0000    16.0000 </r>
       <r>   -14.2747     0.0000    16.0000 </r>
       <r>   -14.1708     0.0000    16.0000 </r>
       <r>   -14.0669     0.0000    16.0000 </r>
       <r>   -13.9630     0.0000    16.0000 </r>
       <r>   -13.8591     0.0000    16.0000 </r>
       <r>   -13.7552     0.0000    16.0000 </r>
       <r>   -13.6514     0.0000    16.0000 </r>
       <r>   -13.5475     0.0000    16.0000 </r>
       <r>   -13.4436     0.0000    16.0000 </r>
       <r>   -13.3397     0.0000    16.0000 </r>
       <r>   -13.2358     0.0000    16.0000 </r>
       <r>   -13.1319     0.0000    16.0000 </r>
       <r>   -13.0280     0.0000    16.0000 </r>
       <r>   -12.9242     0.0000    16.0000 </r>
       <r>   -12.8203     0.0000    16.0000 </r>
       <r>   -12.7164     0.0000    16.0000 </r>
       <r>   -12.6125     0.0000    16.0000 </r>
       <r>   -12.5086     0.0000    16.0000 </r>
       <r>   -12.4047     0.0000    16.0000 </r>
       <r>   -12.3008     0.0000    16.0000 </r>
       <r>   -12.1970     0.0000    16.0000 </r>
       <r>   -12.0931     0.0006    16.0001 </r>
       <r>   -11.9892     2.9146    16.3028 </r>
       <r>   -11.8853    39.8972    20.4476 </r>
       <r>   -11.7814    27.3357    23.2874 </r>
       <r>   -11.6775     6.8501    23.9991 </r>
       <r>   -11.5736     0.2080    24.0207 </r>
       <r>   -11.4698     7.7396    24.8247 </r>
       <r>   -11.3659    26.1128    27.5375 </r>
       <r>   -11.2620    33.0881    30.9749 </r>
       <r>   -11.1581    15.6890    32.6047 </r>
       <r>   -11.0542    61.1918    38.9617 </r>
       <r>   -10.9503    65.0357    45.7180 </r>
       <r>   -10.8464    21.6764    47.9699 </r>
       <r>   -10.7425     0.2896    48.0000 </r>
       <r>   -10.6387     0.0000    48.0000 </r>
       <r>   -10.5348     0.0000    48.0000 </r>
       <r>   -10.4309     0.0000    48.0000 </r>
       <r>   -10.3270     0.0000    48.0000 </r>
       <r>   -10.2231     0.0000    48.0000 </r>
       <r>   -10.1192     0.0000    48.0000 </r>
       <r>   -10.0153     0.0000    48.0000 </r>
       <r>    -9.9115     0.0887    48.0092 </r>
       <r>    -9.8076    20.0565    50.0928 </r>
       <r>    -9.7037    38.7192    54.1152 </r>
       <r>    -9.5998    17.1313    55.8949 </r>
       <r>    -9.4959     1.0115    56.0000 </r>
       <r>    -9.3920     0.0001    56.0000 </r>
       <r>    -9.2881     0.0000    56.0000 </r>
       <r>    -9.1843     0.2404    56.0250 </r>
       <r>    -9.0804    34.3359    59.5920 </r>
       <r>    -8.9765    31.7158    62.8868 </r>
       <r>    -8.8726    10.6663    63.9949 </r>
       <r>    -8.7687     0.0489    64.0000 </r>
       <r>    -8.6648     0.0000    64.0000 </r>
       <r>    -8.5609     0.0000    64.0000 </r>
       <r>    -8.4571     0.0000    64.0000 </r>
       <r>    -8.3532     0.0000    64.0000 </r>
       <r>    -8.2493     0.0000    64.0000 </r>
       <r>    -8.1454     0.0000    64.0000 </r>
       <r>    -8.0415     0.0000    64.0000 </r>
       <r>    -7.9376     0.0000    64.0000 </r>
       <r>    -7.8337     0.0000    64.0000 </r>
       <r>    -7.7298     0.0000    64.0000 </r>
       <r>    -7.6260     0.0000    64.0000 </r>
       <r>    -7.5221     0.0000    64.0000 </r>
       <r>    -7.4182     0.0298    64.0031 </r>
       <r>    -7.3143    13.4729    65.4028 </r>
       <r>    -7.2104    42.6949    69.8382 </r>
       <r>    -7.1065    17.0895    71.6135 </r>
       <r>    -7.0026     3.7187    71.9999 </r>
       <r>    -6.8988     0.0014    72.0000 </r>
       <r>    -6.7949     0.0000    72.0000 </r>
       <r>    -6.6910     0.0000    72.0000 </r>
       <r>    -6.5871     0.0000    72.0000 </r>
       <r>    -6.4832     0.0000    72.0000 </r>
       <r>    -6.3793     0.0029    72.0003 </r>
       <r>    -6.2754     0.5968    72.0623 </r>
       <r>    -6.1716     0.4790    72.1121 </r>
       <r>    -6.0677     2.7674    72.3996 </r>
       <r>    -5.9638     4.2662    72.8428 </r>
       <r>    -5.8599     6.1106    73.4776 </r>
       <r>    -5.7560    18.3637    75.3853 </r>
       <r>    -5.6521    54.2773    81.0240 </r>
       <r>    -5.5482    26.0454    83.7297 </r>
       <r>    -5.4444     8.8683    84.6510 </r>
       <r>    -5.3405    12.2107    85.9195 </r>
       <r>    -5.2366    10.2858    86.9881 </r>
       <r>    -5.1327    47.0634    91.8773 </r>
       <r>    -5.0288    29.6237    94.9548 </r>
       <r>    -4.9249     8.4713    95.8349 </r>
       <r>    -4.8210     0.5193    95.8888 </r>
       <r>    -4.7171     0.0579    95.8948 </r>
       <r>    -4.6133     0.9136    95.9897 </r>
       <r>    -4.5094     0.0987    96.0000 </r>
       <r>    -4.4055     0.0000    96.0000 </r>
       <r>    -4.3016     0.0000    96.0000 </r>
       <r>    -4.1977     0.0000    96.0000 </r>
       <r>    -4.0938     0.0000    96.0000 </r>
       <r>    -3.9899     0.0000    96.0000 </r>
       <r>    -3.8861     0.0000    96.0000 </r>
       <r>    -3.7822     0.0000    96.0000 </r>
       <r>    -3.6783     0.0000    96.0000 </r>
       <r>    -3.5744     0.0000    96.0000 </r>
       <r>    -3.4705     0.0000    96.0000 </r>
       <r>    -3.3666     0.0000    96.0000 </r>
       <r>    -3.2627     0.0000    96.0000 </r>
       <r>    -3.1589     0.0000    96.0000 </r>
       <r>    -3.0550     0.0000    96.0000 </r>
       <r>    -2.9511     0.0000    96.0000 </r>
       <r>    -2.8472     0.0000    96.0000 </r>
       <r>    -2.7433     0.0000    96.0000 </r>
       <r>    -2.6394     0.0001    96.0000 </r>
       <r>    -2.5355     0.9262    96.0962 </r>
       <r>    -2.4317    16.4907    97.8094 </r>
       <r>    -2.3278    21.3749   100.0300 </r>
       <r>    -2.2239    14.0414   101.4887 </r>
       <r>    -2.1200    15.5633   103.1055 </r>
       <r>    -2.0161    14.5764   104.6198 </r>
       <r>    -1.9122    22.5807   106.9656 </r>
       <r>    -1.8083    39.5489   111.0742 </r>
       <r>    -1.7044    29.7641   114.1662 </r>
       <r>    -1.6006    18.5292   116.0912 </r>
       <r>    -1.4967    13.1287   117.4551 </r>
       <r>    -1.3928    16.4691   119.1660 </r>
       <r>    -1.2889    17.4133   120.9750 </r>
       <r>    -1.1850    26.7167   123.7505 </r>
       <r>    -1.0811    23.0996   126.1502 </r>
       <r>    -0.9772    29.6792   129.2335 </r>
       <r>    -0.8734    29.7401   132.3230 </r>
       <r>    -0.7695    26.5811   135.0845 </r>
       <r>    -0.6656    28.1256   138.0063 </r>
       <r>    -0.5617    41.2268   142.2892 </r>
       <r>    -0.4578    44.6788   146.9307 </r>
       <r>    -0.3539    45.4161   151.6489 </r>
       <r>    -0.2500    46.9016   156.5213 </r>
       <r>    -0.1462    50.5063   161.7682 </r>
       <r>    -0.0423    47.6351   166.7168 </r>
       <r>     0.0616    22.5927   169.0639 </r>
       <r>     0.1655    15.4542   170.6694 </r>
       <r>     0.2694     5.5806   171.2491 </r>
       <r>     0.3733    10.6511   172.3556 </r>
       <r>     0.4772     7.8437   173.1705 </r>
       <r>     0.5810     7.7567   173.9763 </r>
       <r>     0.6849     3.7479   174.3657 </r>
       <r>     0.7888     2.8417   174.6609 </r>
       <r>     0.8927     1.1243   174.7777 </r>
       <r>     0.9966     4.9126   175.2880 </r>
       <r>     1.1005     3.9246   175.6957 </r>
       <r>     1.2044     0.9168   175.7910 </r>
       <r>     1.3083     0.9007   175.8846 </r>
       <r>     1.4121     0.0418   175.8889 </r>
       <r>     1.5160     0.0003   175.8889 </r>
       <r>     1.6199     0.3112   175.9212 </r>
       <r>     1.7238     0.7490   175.9991 </r>
       <r>     1.8277     0.0090   176.0000 </r>
       <r>     1.9316     0.0000   176.0000 </r>
       <r>     2.0355     0.0000   176.0000 </r>
       <r>     2.1393     0.0000   176.0000 </r>
       <r>     2.2432     0.0000   176.0000 </r>
       <r>     2.3471     0.0000   176.0000 </r>
       <r>     2.4510     0.0000   176.0000 </r>
       <r>     2.5549     0.0000   176.0000 </r>
       <r>     2.6588     0.0000   176.0000 </r>
       <r>     2.7627     0.0465   176.0048 </r>
       <r>     2.8665     1.0406   176.1129 </r>
       <r>     2.9704     2.3499   176.3571 </r>
       <r>     3.0743     6.2440   177.0057 </r>
       <r>     3.1782     8.7341   177.9131 </r>
       <r>     3.2821     7.5783   178.7004 </r>
       <r>     3.3860    10.2727   179.7676 </r>
       <r>     3.4899     6.9735   180.4920 </r>
       <r>     3.5937     1.7060   180.6692 </r>
       <r>     3.6976     3.3904   181.0214 </r>
       <r>     3.8015     5.8563   181.6298 </r>
       <r>     3.9054     8.5896   182.5222 </r>
       <r>     4.0093    15.5598   184.1386 </r>
       <r>     4.1132     9.3983   185.1150 </r>
       <r>     4.2171     7.9133   185.9371 </r>
       <r>     4.3210    22.1139   188.2344 </r>
       <r>     4.4248    35.4089   191.9129 </r>
       <r>     4.5287    19.2997   193.9178 </r>
       <r>     4.6326     9.5631   194.9113 </r>
       <r>     4.7365    12.5142   196.2114 </r>
       <r>     4.8404     9.8546   197.2351 </r>
       <r>     4.9443     6.4058   197.9006 </r>
       <r>     5.0482     6.2080   198.5455 </r>
       <r>     5.1520    11.1457   199.7034 </r>
       <r>     5.2559     6.3818   200.3664 </r>
       <r>     5.3598    14.3941   201.8618 </r>
       <r>     5.4637     9.9470   202.8951 </r>
       <r>     5.5676     7.6209   203.6868 </r>
       <r>     5.6715     9.2610   204.6489 </r>
       <r>     5.7754     9.1912   205.6037 </r>
       <r>     5.8792    13.7239   207.0295 </r>
       <r>     5.9831    17.9035   208.8894 </r>
       <r>     6.0870    11.9216   210.1279 </r>
       <r>     6.1909    13.6592   211.5469 </r>
       <r>     6.2948    13.4880   212.9481 </r>
       <r>     6.3987    12.6723   214.2646 </r>
       <r>     6.5026    18.0209   216.1367 </r>
       <r>     6.6064    18.2215   218.0297 </r>
       <r>     6.7103    20.8955   220.2004 </r>
       <r>     6.8142    19.3044   222.2059 </r>
       <r>     6.9181    21.5320   224.4428 </r>
       <r>     7.0220    20.9974   226.6241 </r>
       <r>     7.1259    20.2871   228.7316 </r>
       <r>     7.2298    28.3985   231.6819 </r>
       <r>     7.3337    26.1597   234.3995 </r>
       <r>     7.4375    24.2491   236.9186 </r>
       <r>     7.5414    21.8832   239.1920 </r>
       <r>     7.6453     7.6663   239.9884 </r>
       <r>     7.7492     0.1113   240.0000 </r>
       <r>     7.8531     0.0000   240.0000 </r>
       <r>     7.9570     0.0000   240.0000 </r>
       <r>     8.0609     0.0000   240.0000 </r>
       <r>     8.1647     0.0000   240.0000 </r>
       <r>     8.2686     0.0000   240.0000 </r>
       <r>     8.3725     0.0000   240.0000 </r>
       <r>     8.4764     0.0000   240.0000 </r>
       <r>     8.5803     0.0000   240.0000 </r>
       <r>     8.6842     0.0000   240.0000 </r>
       <r>     8.7881     0.0000   240.0000 </r>
       <r>     8.8919     0.0000   240.0000 </r>
       <r>     8.9958     0.0000   240.0000 </r>
      </set>
     </set>
    </array>
   </total>
  </dos>
 </calculation>
 <structure name="finalpos" >
  <crystal>
   <varray name="basis" >
    <v>       9.15575066       0.01539608      -0.22235523 </v>
    <v>       0.01575396       8.89923090      -0.04662348 </v>
    <v>      -0.31514062      -0.06717796      12.77047458 </v>
   </varray>
   <i name="volume">   1039.87236480 </i>
   <varray name="rec_basis" >
    <v>       0.10928675      -0.00017934       0.00269596 </v>
    <v>      -0.00017471       0.11237264       0.00058682 </v>
    <v>       0.00190223       0.00040714       0.07835471 </v>
   </varray>
  </crystal>
  <varray name="positions" >
   <v>       0.53764344       0.04141362       0.50414246 </v>
   <v>      -0.00295481       0.50823059       0.46484867 </v>
   <v>       0.55091902       0.00030440       0.02458666 </v>
   <v>      -0.00477246       0.49417945       0.05755672 </v>
   <v>       0.32070038       0.00895114       0.52763395 </v>
   <v>       0.52354968       0.81417016       0.52608449 </v>
   <v>       0.69604808       0.88572685       0.50628343 </v>
   <v>       0.37480538       0.19209919       0.50465638 </v>
   <v>       0.61558511       0.12902555       0.48883747 </v>
   <v>       0.90764434       0.40461794       0.58857907 </v>
   <v>       0.11446493       0.59137449       0.59261790 </v>
   <v>       0.16067418       0.65644002       0.47051268 </v>
   <v>       0.83484881       0.35865045       0.46382780 </v>
   <v>       0.98768916       0.51501082       0.38002095 </v>
   <v>       0.33378540       0.95443070       0.99738766 </v>
   <v>       0.53936813       0.88440042       0.88595904 </v>
   <v>       0.71325161       0.93894649       0.93330515 </v>
   <v>       0.37901379       0.05954810       0.10907388 </v>
   <v>       0.62704660       0.05633748       0.07986269 </v>
   <v>       0.87631203       0.59304387       0.93673154 </v>
   <v>       0.09396411       0.41601278       0.92649592 </v>
   <v>       0.16734521       0.35731167       0.04708072 </v>
   <v>       0.82368816       0.63307345       0.06341228 </v>
   <v>       0.00308971       0.48694611       0.14238721 </v>
   <v>       0.00393821      -0.00974090       0.00753846 </v>
   <v>       0.49089897       0.49884791       0.00689926 </v>
   <v>       0.71974025       0.21886034       0.74503011 </v>
   <v>       0.30097156       0.81640100       0.73992966 </v>
   <v>       0.80095783       0.69267015       0.74218384 </v>
   <v>       0.20039188       0.30096429       0.73823500 </v>
   <v>      -0.01292277       0.00199877       0.50741984 </v>
   <v>       0.49661778       0.49138160       0.50897824 </v>
   <v>       0.74288919       0.26313032       0.25805711 </v>
   <v>       0.23778120       0.75721349       0.27060765 </v>
   <v>       0.74120388       0.75134799       0.24955758 </v>
   <v>       0.24165661       0.24759254       0.25131999 </v>
   <v>       0.58753217       0.90403255       0.51247116 </v>
   <v>       0.40115196       0.08191792       0.51170428 </v>
   <v>       0.09691822       0.59089377       0.51370939 </v>
   <v>       0.90710572       0.41854161       0.50988785 </v>
   <v>       0.60425687       0.93370127       0.94312814 </v>
   <v>       0.41208055       0.00438745       0.04442213 </v>
   <v>       0.09100067       0.41797739       0.00585116 </v>
   <v>       0.89116863       0.57772298       0.01538792 </v>
   <v>       0.01671540       0.00067178       0.24186495 </v>
   <v>       0.51680012       0.50761347       0.23588042 </v>
   <v>       0.03355308       0.01665556       0.73902016 </v>
   <v>       0.53814100       0.49113178       0.74130534 </v>
  </varray>
 </structure>
</modeling>
