ortho-FASnI3                            
           1
     8.837900    0.000000    0.000000
     0.000000    8.837900    0.000000
     0.000000    0.000000   12.406600
   C    H    I    N    Sn
     4    20    12     8     4
Direct configuration=     1
   0.54495491  0.04494122  0.50546493
   0.00026691  0.50233607  0.45946318
   0.54816911  0.00771723  0.01921568
   0.00091073  0.50147811  0.05818425
   0.31646029  0.01933100  0.52603898
   0.51899606  0.81587662  0.52258047
   0.70203241  0.88172544  0.50439428
   0.38264321  0.20274571  0.51005368
   0.63064793  0.13071955  0.49303326
   0.90834378  0.39600461  0.59076520
   0.11210386  0.59673567  0.58705859
   0.16191919  0.66053243  0.45908571
   0.83988909  0.34336680  0.46494874
   0.99336330  0.50631677  0.37226027
   0.32296575  0.98197069  0.98745831
   0.53754188  0.85038377  0.89986442
   0.71739516  0.89768932  0.94651436
   0.36899421  0.11103594  0.08717218
   0.62693445  0.06998416  0.06968279
   0.87811545  0.57724244  0.92923440
   0.10828088  0.41097162  0.92659318
   0.18527410  0.37157435  0.05228301
   0.81602590  0.63080213  0.05700435
   0.00650102  0.50682046  0.14542142
   0.00000000  0.00000000  0.00835000
   0.50000000  0.50000000  0.00835000
   0.69870000  0.19870000  0.75040000
   0.30130000  0.80130000  0.75040000
   0.80130000  0.69870000  0.75040000
   0.19870000  0.30130000  0.75040000
   0.00000000  0.00000000  0.50970000
   0.50000000  0.50000000  0.50970000
   0.73403000  0.23403000  0.24900000
   0.26597000  0.76597000  0.24900000
   0.76597000  0.73403000  0.24900000
   0.23403000  0.26597000  0.24900000
   0.58999386  0.90428717  0.51018321
   0.40466358  0.09037195  0.51298825
   0.09723109  0.59267578  0.50610388
   0.91047799  0.40812618  0.50949778
   0.60362626  0.90743064  0.95296381
   0.40409221  0.03779865  0.02936372
   0.10408462  0.42310300  0.00811623
   0.89135982  0.57406528  0.01058181
   0.00000000  0.00000000  0.25380000
   0.50000000  0.50000000  0.25380000
   0.00000000  0.00000000  0.75370000
   0.50000000  0.50000000  0.75370000
ortho-FASnI3                            
           1
     8.875526   -0.001570   -0.002220
    -0.001571    8.861833    0.004299
    -0.003115    0.006035   12.500966
   C    H    I    N    Sn
     4    20    12     8     4
Direct configuration=     2
   0.54494868  0.04495259  0.50546626
   0.00027831  0.50233941  0.45947076
   0.54814061  0.00773043  0.01923581
   0.00093129  0.50146795  0.05819353
   0.31647508  0.01935051  0.52602254
   0.51898379  0.81586208  0.52256376
   0.70201888  0.88173892  0.50438911
   0.38263680  0.20274449  0.51005656
   0.63066570  0.13071324  0.49302808
   0.90834649  0.39599434  0.59076276
   0.11209435  0.59672937  0.58706132
   0.16192090  0.66055007  0.45908719
   0.83988513  0.34335491  0.46493600
   0.99336248  0.50631524  0.37225318
   0.32297364  0.98196829  0.98746381
   0.53752103  0.85035717  0.89985745
   0.71743135  0.89768344  0.94650655
   0.36901170  0.11102426  0.08715145
   0.62694249  0.07000435  0.06966843
   0.87810449  0.57723142  0.92921118
   0.10828545  0.41098070  0.92660526
   0.18528455  0.37157752  0.05230737
   0.81601160  0.63081072  0.05702375
   0.00649274  0.50683034  0.14544381
  -0.00030221 -0.00003687  0.00821190
   0.49982476  0.49967851  0.00835857
   0.69939217  0.19943489  0.75031573
   0.30120472  0.80118076  0.75023338
   0.80147038  0.69861169  0.74932694
   0.19881148  0.30109342  0.74942931
  -0.00029248 -0.00011910  0.50934219
   0.49997881  0.49967677  0.50931731
   0.73445225  0.23451735  0.24984076
   0.26572240  0.76579649  0.24975249
   0.76553535  0.73451388  0.24993470
   0.23431551  0.26577220  0.24996427
   0.59000290  0.90429899  0.51019507
   0.40464772  0.09033867  0.51299237
   0.09723890  0.59268054  0.50610452
   0.91047169  0.40814189  0.50950245
   0.60362570  0.90744045  0.95297214
   0.40406801  0.03782302  0.02937215
   0.10408319  0.42306824  0.00811560
   0.89137541  0.57410604  0.01059708
   0.00005376 -0.00064757  0.25341321
   0.50005174  0.50082387  0.25291602
  -0.00042281  0.00084409  0.75393024
   0.50020210  0.49881080  0.75437003
ortho-FASnI3                            
           1
     8.890031   -0.002175   -0.003075
    -0.002177    8.871059    0.005957
    -0.004316    0.008362   12.537345
   C    H    I    N    Sn
     4    20    12     8     4
Direct configuration=     3
   0.54494629  0.04495696  0.50546677
   0.00028269  0.50234070  0.45947367
   0.54812968  0.00773550  0.01924351
   0.00093919  0.50146404  0.05819709
   0.31648076  0.01935801  0.52601624
   0.51897907  0.81585649  0.52255737
   0.70201369  0.88174410  0.50438713
   0.38263434  0.20274402  0.51005766
   0.63067252  0.13071082  0.49302610
   0.90834753  0.39599039  0.59076182
   0.11209071  0.59672694  0.58706236
   0.16192156  0.66055685  0.45908775
   0.83988361  0.34335034  0.46493112
   0.99336216  0.50631466  0.37225046
   0.32297667  0.98196737  0.98746591
   0.53751302  0.85034694  0.89985478
   0.71744524  0.89768119  0.94650357
   0.36901842  0.11101977  0.08714352
   0.62694557  0.07001211  0.06966293
   0.87810027  0.57722719  0.92920230
   0.10828720  0.41098419  0.92660989
   0.18528856  0.37157874  0.05231669
   0.81600611  0.63081402  0.05703118
   0.00648957  0.50683412  0.14545237
  -0.00041824 -0.00005103  0.00815904
   0.49975748  0.49955489  0.00836188
   0.69965791  0.19971750  0.75028344
   0.30116811  0.80113496  0.75016964
   0.80153564  0.69857803  0.74891642
   0.19885413  0.30101426  0.74905796
  -0.00040481 -0.00016481  0.50920529
   0.49997060  0.49955260  0.50917094
   0.73461449  0.23470452  0.25016240
   0.26562744  0.76572958  0.25004039
   0.76536867  0.73469964  0.25029221
   0.23442522  0.26569592  0.25033324
   0.59000638  0.90430353  0.51019961
   0.40464163  0.09032587  0.51299395
   0.09724190  0.59268237  0.50610476
   0.91046927  0.40814793  0.50950423
   0.60362549  0.90744422  0.95297533
   0.40405872  0.03783239  0.02937537
   0.10408265  0.42305488  0.00811537
   0.89138140  0.57412171  0.01060292
   0.00007430 -0.00089643  0.25326531
   0.50007154  0.50114085  0.25257771
  -0.00058503  0.00116852  0.75401818
   0.50027969  0.49835344  0.75462655
ortho-FASnI3                            
           1
     8.900895   -0.001809   -0.004565
    -0.001815    8.875892    0.006248
    -0.006406    0.008751   12.578046
   C    H    I    N    Sn
     4    20    12     8     4
Direct configuration=     4
   0.54457251  0.04482725  0.50550315
   0.00031934  0.50235796  0.45966172
   0.54797167  0.00741996  0.01901006
   0.00099780  0.50140146  0.05796000
   0.31680875  0.01956993  0.52596029
   0.51924224  0.81613995  0.52250026
   0.70151394  0.88188259  0.50441080
   0.38275036  0.20239442  0.51006179
   0.63039423  0.13048732  0.49306144
   0.90837296  0.39609309  0.59010601
   0.11195622  0.59668103  0.58640558
   0.16162347  0.66024267  0.45935281
   0.84024856  0.34367793  0.46518783
   0.99341128  0.50628899  0.37283028
   0.32337754  0.98224839  0.98768557
   0.53784079  0.85069836  0.90017101
   0.71692202  0.89777702  0.94655224
   0.36924116  0.11058903  0.08681348
   0.62663862  0.06975462  0.06944130
   0.87818415  0.57722488  0.92982726
   0.10824983  0.41108514  0.92723431
   0.18489921  0.37182751  0.05211140
   0.81642711  0.63049477  0.05676124
   0.00647351  0.50678405  0.14488190
  -0.00066407 -0.00008878  0.00805698
   0.49961846  0.49929372  0.00836992
   0.70024248  0.20032093  0.75020248
   0.30107817  0.80101935  0.75004159
   0.80164171  0.69849862  0.74812769
   0.19893156  0.30087493  0.74833377
  -0.00064688 -0.00026446  0.50897786
   0.49994496  0.49928978  0.50894654
   0.73497288  0.23509660  0.25084292
   0.26540119  0.76557765  0.25066104
   0.76504313  0.73505953  0.25098549
   0.23466625  0.26553324  0.25103915
   0.58995288  0.90454434  0.51021679
   0.40513466  0.09015533  0.51299080
   0.09706619  0.59248629  0.50611972
   0.91061154  0.40829668  0.50950155
   0.60330644  0.90786060  0.95316205
   0.40439407  0.03773526  0.02940261
   0.10379041  0.42323354  0.00817390
   0.89155681  0.57405290  0.01062605
   0.00011225 -0.00136045  0.25295368
   0.50010605  0.50175369  0.25190618
  -0.00088678  0.00179937  0.75411469
   0.50044737  0.49744378  0.75502920
ortho-FASnI3                            
           1
     8.921753   -0.001107   -0.007425
    -0.001119    8.885171    0.006808
    -0.010420    0.009497   12.656187
   C    H    I    N    Sn
     4    20    12     8     4
Direct configuration=     5
   0.54385581  0.04457840  0.50557269
   0.00038970  0.50239108  0.46002160
   0.54766861  0.00681453  0.01856329
   0.00111010  0.50128141  0.05750630
   0.31743766  0.01997654  0.52585327
   0.51974682  0.81668387  0.52239103
   0.70055565  0.88214836  0.50445597
   0.38297285  0.20172359  0.51006973
   0.62986065  0.13005846  0.49312901
   0.90842141  0.39629021  0.58885099
   0.11169805  0.59659301  0.58514868
   0.16105199  0.65963981  0.45985998
   0.84094847  0.34430646  0.46567916
   0.99350572  0.50623969  0.37393986
   0.32414630  0.98278757  0.98810602
   0.53846940  0.85137263  0.90077624
   0.71591873  0.89796094  0.94664524
   0.36966816  0.10976253  0.08618196
   0.62604995  0.06926058  0.06901710
   0.87834528  0.57722039  0.93102324
   0.10817843  0.41127880  0.92842925
   0.18415249  0.37230491  0.05171843
   0.81723430  0.62988217  0.05624476
   0.00644246  0.50668801  0.14379020
  -0.00113551 -0.00016120  0.00786162
   0.49935192  0.49879258  0.00838528
   0.70136332  0.20147876  0.75004766
   0.30090566  0.80079755  0.74979651
   0.80184477  0.69834631  0.74661833
   0.19907973  0.30060763  0.74694793
  -0.00111116 -0.00045563  0.50854257
   0.49989572  0.49878549  0.50851711
   0.73566038  0.23584885  0.25214529
   0.26496764  0.76528610  0.25184872
   0.76441919  0.73575006  0.25231210
   0.23512876  0.26522101  0.25239010
   0.58985030  0.90500644  0.51024965
   0.40608008  0.08982804  0.51298489
   0.09672929  0.59211006  0.50614830
   0.91088433  0.40858210  0.50949643
   0.60269470  0.90865959  0.95351929
   0.40503713  0.03754886  0.02945482
   0.10323006  0.42357638  0.00828584
   0.89189317  0.57392084  0.01067036
   0.00018492 -0.00225081  0.25235736
   0.50017188  0.50292969  0.25062109
  -0.00146540  0.00300990  0.75429927
   0.50076917  0.49569824  0.75579983
ortho-FASnI3                            
           1
     8.929646   -0.001402   -0.008929
    -0.001415    8.887152    0.007623
    -0.012538    0.010638   12.685463
   C    H    I    N    Sn
     4    20    12     8     4
Direct configuration=     6
   0.54447699  0.04456954  0.50552502
   0.00031898  0.50230001  0.46024781
   0.54764236  0.00723206  0.01886249
   0.00090230  0.50142183  0.05740841
   0.31785318  0.02016945  0.52578927
   0.51996824  0.81690243  0.52234513
   0.70025825  0.88232367  0.50446586
   0.38319720  0.20137683  0.51005808
   0.62943338  0.12975156  0.49318300
   0.90846670  0.39638733  0.58847915
   0.11159656  0.59654107  0.58480444
   0.16076387  0.65932830  0.46011950
   0.84121557  0.34455005  0.46586738
   0.99355807  0.50620863  0.37455619
   0.32447909  0.98301527  0.98828097
   0.53864032  0.85168362  0.90104455
   0.71531082  0.89814230  0.94675295
   0.36994088  0.10944931  0.08596270
   0.62563980  0.06886185  0.06869654
   0.87840437  0.57722859  0.93143730
   0.10810601  0.41138522  0.92888320
   0.18376791  0.37254792  0.05154711
   0.81754900  0.62964363  0.05605789
   0.00644147  0.50661260  0.14313678
  -0.00136079 -0.00019881  0.00777110
   0.49922771  0.49855588  0.00838215
   0.70190254  0.20202594  0.74997776
   0.30081144  0.80068267  0.74969255
   0.80191207  0.69827233  0.74597638
   0.19914025  0.30049969  0.74634504
  -0.00132364 -0.00054428  0.50838115
   0.49986585  0.49853997  0.50837873
   0.73599534  0.23620353  0.25275004
   0.26474588  0.76514169  0.25241188
   0.76414817  0.73605364  0.25288721
   0.23534812  0.26507844  0.25296711
   0.58955281  0.90505781  0.51029523
   0.40560439  0.08985288  0.51305629
   0.09656933  0.59196747  0.50584947
   0.91115450  0.40888756  0.50921039
   0.60281628  0.90853639  0.95332745
   0.40516016  0.03730297  0.02935590
   0.10320337  0.42357200  0.00840259
   0.89221195  0.57376341  0.01083159
   0.00020589 -0.00260029  0.25208998
   0.50020094  0.50341778  0.25007190
  -0.00168701  0.00351636  0.75431102
   0.50092212  0.49494269  0.75603973
ortho-FASnI3                            
           1
     8.930446   -0.001432   -0.009081
    -0.001445    8.887353    0.007706
    -0.012752    0.010754   12.688430
   C    H    I    N    Sn
     4    20    12     8     4
Direct configuration=     7
   0.54453989  0.04456864  0.50552020
   0.00031183  0.50229078  0.46027067
   0.54763971  0.00727435  0.01889274
   0.00088126  0.50143605  0.05739851
   0.31789525  0.02018899  0.52578280
   0.51999066  0.81692458  0.52234049
   0.70022815  0.88234143  0.50446685
   0.38321991  0.20134170  0.51005690
   0.62939013  0.12972046  0.49318845
   0.90847128  0.39639717  0.58844156
   0.11158628  0.59653581  0.58476964
   0.16073471  0.65929673  0.46014574
   0.84124262  0.34457472  0.46588641
   0.99356338  0.50620547  0.37461850
   0.32451278  0.98303834  0.98829866
   0.53865763  0.85171512  0.90107168
   0.71524928  0.89816068  0.94676383
   0.36996849  0.10941758  0.08594054
   0.62559827  0.06882145  0.06866413
   0.87841036  0.57722942  0.93147917
   0.10809868  0.41139600  0.92892909
   0.18372897  0.37257255  0.05152978
   0.81758085  0.62961946  0.05603900
   0.00644135  0.50660497  0.14307072
  -0.00138361 -0.00020262  0.00776194
   0.49921513  0.49853190  0.00838183
   0.70195714  0.20208138  0.74997070
   0.30080189  0.80067103  0.74968204
   0.80191887  0.69826485  0.74591147
   0.19914636  0.30048877  0.74628409
  -0.00134516 -0.00055326  0.50836483
   0.49986282  0.49851510  0.50836474
   0.73602927  0.23623946  0.25281118
   0.26472344  0.76512705  0.25246881
   0.76412075  0.73608438  0.25294535
   0.23537034  0.26506399  0.25302545
   0.58952269  0.90506301  0.51029983
   0.40555623  0.08985539  0.51306350
   0.09655312  0.59195303  0.50581926
   0.91118185  0.40891851  0.50918147
   0.60282858  0.90852391  0.95330805
   0.40517261  0.03727805  0.02934590
   0.10320067  0.42357155  0.00841439
   0.89224423  0.57374746  0.01084789
   0.00020801 -0.00263569  0.25206296
   0.50020388  0.50346724  0.25001638
  -0.00170945  0.00356767  0.75431220
   0.50093761  0.49486614  0.75606399
ortho-FASnI3                            
           1
     8.932424   -0.000432   -0.008855
    -0.000450    8.887198    0.007714
    -0.012428    0.010761   12.691682
   C    H    I    N    Sn
     4    20    12     8     4
Direct configuration=     8
   0.54450988  0.04468585  0.50551963
   0.00031990  0.50230839  0.46020168
   0.54776012  0.00732138  0.01893042
   0.00092009  0.50141114  0.05742724
   0.31789029  0.02006655  0.52578748
   0.51990843  0.81683705  0.52235123
   0.70023568  0.88241474  0.50446364
   0.38331746  0.20139133  0.51003783
   0.62933149  0.12973154  0.49319310
   0.90851734  0.39645269  0.58845022
   0.11155936  0.59650869  0.58479549
   0.16072779  0.65928309  0.46014187
   0.84122921  0.34457001  0.46585203
   0.99357394  0.50618347  0.37482517
   0.32447372  0.98297213  0.98824877
   0.53848919  0.85170297  0.90104066
   0.71522108  0.89826093  0.94682178
   0.37008603  0.10939541  0.08594324
   0.62555235  0.06873740  0.06860602
   0.87842485  0.57723463  0.93146606
   0.10804803  0.41143399  0.92893060
   0.18371313  0.37258052  0.05157054
   0.81758647  0.62961710  0.05606246
   0.00645078  0.50656829  0.14286433
  -0.00145346 -0.00021793  0.00773601
   0.49918057  0.49845266  0.00837150
   0.70214163  0.20225890  0.74994872
   0.30075671  0.80062405  0.74965935
   0.80191398  0.69823525  0.74577068
   0.19915676  0.30047109  0.74613641
  -0.00141904 -0.00058029  0.50835402
   0.49985064  0.49843409  0.50838211
   0.73614732  0.23635422  0.25299957
   0.26463675  0.76507534  0.25265296
   0.76405441  0.73616221  0.25308359
   0.23544384  0.26502083  0.25315370
   0.58952859  0.90500929  0.51031044
   0.40561368  0.08986130  0.51307208
   0.09651536  0.59191865  0.50574552
   0.91121240  0.40895616  0.50912076
   0.60285640  0.90862868  0.95336087
   0.40516830  0.03724524  0.02934930
   0.10316499  0.42358662  0.00849310
   0.89226831  0.57375598  0.01089754
   0.00020563 -0.00267253  0.25199128
   0.50020756  0.50355352  0.24989469
  -0.00172350  0.00366251  0.75424027
   0.50098457  0.49469560  0.75601840
ortho-FASnI3                            
           1
     8.935813    0.001283   -0.008466
     0.001256    8.886933    0.007728
    -0.011871    0.010773   12.697256
   C    H    I    N    Sn
     4    20    12     8     4
Direct configuration=     9
   0.54445842  0.04488675  0.50551866
   0.00033373  0.50233858  0.46008344
   0.54796646  0.00740196  0.01899499
   0.00098664  0.50136842  0.05747649
   0.31788182  0.01985668  0.52579551
   0.51976753  0.81668703  0.52236964
   0.70024859  0.88254040  0.50445813
   0.38348461  0.20147639  0.51000515
   0.62923099  0.12975055  0.49320105
   0.90859626  0.39654785  0.58846506
   0.11151323  0.59646222  0.58483978
   0.16071594  0.65925971  0.46013523
   0.84120623  0.34456193  0.46579311
   0.99359202  0.50614576  0.37517932
   0.32440678  0.98285864  0.98816328
   0.53820054  0.85168218  0.90098749
   0.71517272  0.89843279  0.94692110
   0.37028747  0.10935739  0.08594785
   0.62547366  0.06859333  0.06850646
   0.87844968  0.57724357  0.93144359
   0.10796121  0.41149912  0.92893318
   0.18368599  0.37259420  0.05164038
   0.81759611  0.62961305  0.05610268
   0.00646697  0.50650541  0.14251066
  -0.00157316 -0.00024415  0.00769158
   0.49912137  0.49831683  0.00835378
   0.70245776  0.20256316  0.74991106
   0.30067928  0.80054354  0.74962047
   0.80190561  0.69818451  0.74552941
   0.19917459  0.30044078  0.74588335
  -0.00154566 -0.00062660  0.50833550
   0.49982977  0.49829525  0.50841187
   0.73634960  0.23655091  0.25332239
   0.26448818  0.76498673  0.25296854
   0.76394070  0.73629562  0.25332048
   0.23556979  0.26494684  0.25337347
   0.58953871  0.90491721  0.51032862
   0.40571214  0.08987142  0.51308677
   0.09645066  0.59185973  0.50561915
   0.91126476  0.40902069  0.50901672
   0.60290404  0.90880827  0.95345137
   0.40516090  0.03718900  0.02935513
   0.10310383  0.42361246  0.00862799
   0.89230958  0.57377058  0.01098260
   0.00020156 -0.00273569  0.25186844
   0.50021387  0.50370142  0.24968616
  -0.00174759  0.00382509  0.75411699
   0.50106508  0.49440326  0.75594026
ortho-FASnI3                            
           1
     8.937617    0.002386   -0.008281
     0.002353    8.886003    0.007755
    -0.011609    0.010807   12.698715
   C    H    I    N    Sn
     4    20    12     8     4
Direct configuration=    10
   0.54442816  0.04481614  0.50553236
   0.00034059  0.50234171  0.46011507
   0.54789116  0.00739337  0.01897939
   0.00096969  0.50137403  0.05742980
   0.31792223  0.01973096  0.52579574
   0.51968025  0.81659351  0.52238194
   0.70028764  0.88261601  0.50445398
   0.38359357  0.20156857  0.50997908
   0.62921709  0.12983732  0.49319780
   0.90866497  0.39663534  0.58844421
   0.11145939  0.59641601  0.58481651
   0.16073586  0.65927236  0.46009483
   0.84118892  0.34455840  0.46573623
   0.99359181  0.50612515  0.37525921
   0.32438367  0.98277702  0.98810405
   0.53805565  0.85174222  0.90101233
   0.71522698  0.89855357  0.94698833
   0.37041358  0.10936186  0.08597981
   0.62553251  0.06858701  0.06851415
   0.87847666  0.57724952  0.93144565
   0.10789294  0.41155248  0.92896091
   0.18370368  0.37257902  0.05172158
   0.81757223  0.62963503  0.05616211
   0.00648913  0.50646666  0.14240904
  -0.00165431 -0.00026320  0.00766382
   0.49908240  0.49822220  0.00834094
   0.70268041  0.20277325  0.74988504
   0.30062127  0.80048572  0.74959837
   0.80188875  0.69814707  0.74538814
   0.19918251  0.30042624  0.74572665
  -0.00163263 -0.00065813  0.50833857
   0.49981339  0.49819715  0.50845643
   0.73649324  0.23668803  0.25354372
   0.26438067  0.76492373  0.25318863
   0.76386866  0.73638156  0.25346677
   0.23565877  0.26489611  0.25350435
   0.58949136  0.90494094  0.51034038
   0.40569037  0.08987246  0.51310689
   0.09645677  0.59185353  0.50565470
   0.91124896  0.40900596  0.50901231
   0.60282278  0.90883157  0.95342450
   0.40521366  0.03712298  0.02934541
   0.10312875  0.42356980  0.00861591
   0.89231209  0.57379350  0.01097091
   0.00019481 -0.00274949  0.25178778
   0.50021666  0.50377626  0.24956138
  -0.00174070  0.00390800  0.75400150
   0.50112197  0.49423224  0.75583713
ortho-FASnI3                            
           1
     8.943031    0.005694   -0.007728
     0.005643    8.883212    0.007834
    -0.010820    0.010909   12.703092
   C    H    I    N    Sn
     4    20    12     8     4
Direct configuration=    11
   0.54433742  0.04460430  0.50557346
   0.00036117  0.50235109  0.46020996
   0.54766533  0.00736761  0.01893263
   0.00091887  0.50139088  0.05728977
   0.31804345  0.01935376  0.52579642
   0.51941851  0.81631296  0.52241882
   0.70040474  0.88284282  0.50444150
   0.38392032  0.20184511  0.50990086
   0.62917537  0.13009769  0.49318803
   0.90887102  0.39689780  0.58838167
   0.11129794  0.59627737  0.58474671
   0.16079562  0.65931029  0.45997363
   0.84113699  0.34454783  0.46556559
   0.99359117  0.50606331  0.37549886
   0.32431438  0.98253214  0.98792638
   0.53762107  0.85192241  0.90108686
   0.71538967  0.89891595  0.94719001
   0.37079181  0.10937525  0.08607567
   0.62570900  0.06856803  0.06853721
   0.87855759  0.57726735  0.93145184
   0.10768818  0.41171260  0.92904408
   0.18375674  0.37253347  0.05196513
   0.81750060  0.62970099  0.05634040
   0.00655563  0.50635038  0.14210420
  -0.00189770 -0.00032032  0.00758054
   0.49896555  0.49793827  0.00830242
   0.70334817  0.20340349  0.74980698
   0.30044729  0.80031227  0.74953209
   0.80183820  0.69803477  0.74496439
   0.19920630  0.30038258  0.74525662
  -0.00189350 -0.00075266  0.50834780
   0.49976428  0.49790284  0.50859009
   0.73692403  0.23709938  0.25420760
   0.26405820  0.76473478  0.25384883
   0.76365256  0.73663945  0.25390560
   0.23592567  0.26474385  0.25389696
   0.58934933  0.90501216  0.51037566
   0.40562509  0.08987559  0.51316725
   0.09647512  0.59183493  0.50576135
   0.91120154  0.40896177  0.50899909
   0.60257903  0.90890151  0.95334387
   0.40537191  0.03692488  0.02931625
   0.10320351  0.42344181  0.00857969
   0.89231961  0.57386227  0.01093582
   0.00017459 -0.00279089  0.25154583
   0.50022501  0.50400080  0.24918708
  -0.00172003  0.00415677  0.75365505
   0.50129267  0.49371909  0.75552778
ortho-FASnI3                            
           1
     8.944054    0.006099   -0.007767
     0.006047    8.880836    0.007815
    -0.010876    0.010878   12.703299
   C    H    I    N    Sn
     4    20    12     8     4
Direct configuration=    12
   0.54430685  0.04466757  0.50558269
   0.00036342  0.50232852  0.46038514
   0.54765760  0.00734301  0.01891393
   0.00091636  0.50137201  0.05713974
   0.31816860  0.01926944  0.52578664
   0.51942196  0.81631623  0.52241800
   0.70035859  0.88294094  0.50444450
   0.38404586  0.20192026  0.50986837
   0.62909486  0.13015611  0.49319342
   0.90895229  0.39701030  0.58834741
   0.11123028  0.59621647  0.58474646
   0.16077510  0.65927504  0.45995080
   0.84115625  0.34458382  0.46551098
   0.99358676  0.50604960  0.37543816
   0.32441323  0.98249863  0.98790704
   0.53748649  0.85204453  0.90115187
   0.71533980  0.89907470  0.94726722
   0.37095306  0.10934650  0.08609622
   0.62577347  0.06856948  0.06855454
   0.87858574  0.57728794  0.93145895
   0.10762334  0.41176286  0.92905668
   0.18375733  0.37252230  0.05205699
   0.81750575  0.62970563  0.05640000
   0.00658820  0.50630942  0.14212632
  -0.00201116 -0.00034918  0.00754988
   0.49891487  0.49780475  0.00829371
   0.70366028  0.20369303  0.74977251
   0.30036076  0.80023373  0.74950650
   0.80180374  0.69798019  0.74479068
   0.19921278  0.30036542  0.74505418
  -0.00201713 -0.00079730  0.50836481
   0.49973935  0.49776555  0.50867274
   0.73712741  0.23729268  0.25451237
   0.26390519  0.76464434  0.25415801
   0.76355746  0.73675403  0.25409014
   0.23605264  0.26467319  0.25405609
   0.58932991  0.90478881  0.51040755
   0.40552899  0.08986560  0.51320222
   0.09653402  0.59187940  0.50576191
   0.91115544  0.40891948  0.50899782
   0.60259952  0.90884019  0.95323451
   0.40516724  0.03686288  0.02931597
   0.10326963  0.42336192  0.00856805
   0.89222700  0.57395777  0.01090179
   0.00016010 -0.00277998  0.25143526
   0.50022809  0.50407773  0.24902554
  -0.00168271  0.00424012  0.75346349
   0.50137438  0.49351514  0.75533653
ortho-FASnI3                            
           1
     8.945757    0.006773   -0.007832
     0.006720    8.876881    0.007783
    -0.010968    0.010827   12.703643
   C    H    I    N    Sn
     4    20    12     8     4
Direct configuration=    13
   0.54425598  0.04477291  0.50559805
   0.00036717  0.50229094  0.46067672
   0.54764472  0.00730203  0.01888282
   0.00091219  0.50134060  0.05689004
   0.31837688  0.01912903  0.52577036
   0.51942769  0.81632169  0.52241663
   0.70028178  0.88310430  0.50444949
   0.38425477  0.20204538  0.50981430
   0.62896086  0.13025338  0.49320241
   0.90908753  0.39719758  0.58829037
   0.11111769  0.59611509  0.58474606
   0.16074096  0.65921634  0.45991279
   0.84118829  0.34464374  0.46542009
   0.99357943  0.50602677  0.37533714
   0.32457774  0.98244282  0.98787486
   0.53726252  0.85224784  0.90126009
   0.71525681  0.89933902  0.94739574
   0.37122143  0.10929863  0.08613042
   0.62588076  0.06857188  0.06858338
   0.87863260  0.57732222  0.93147078
   0.10751544  0.41184653  0.92907767
   0.18375832  0.37250369  0.05220986
   0.81751431  0.62971335  0.05649919
   0.00664243  0.50624121  0.14216312
  -0.00219997 -0.00039722  0.00749885
   0.49883052  0.49758245  0.00827921
   0.70417970  0.20417507  0.74971513
   0.30021676  0.80010298  0.74946393
   0.80174641  0.69788933  0.74450156
   0.19922356  0.30033684  0.74471724
  -0.00222288 -0.00087162  0.50839311
   0.49969789  0.49753698  0.50881032
   0.73746589  0.23761451  0.25501964
   0.26365056  0.76449379  0.25467262
   0.76339918  0.73694481  0.25439730
   0.23626396  0.26455554  0.25432094
   0.58929760  0.90441695  0.51046063
   0.40536906  0.08984898  0.51326042
   0.09663203  0.59195343  0.50576284
   0.91107872  0.40884908  0.50899571
   0.60263362  0.90873810  0.95305247
   0.40482662  0.03675968  0.02931549
   0.10337967  0.42322891  0.00854867
   0.89207287  0.57411677  0.01084515
   0.00013598 -0.00276180  0.25125121
   0.50023322  0.50420580  0.24875667
  -0.00162062  0.00437888  0.75314466
   0.50151038  0.49317557  0.75501820
ortho-FASnI3                            
           1
     8.946077    0.007062   -0.008173
     0.007009    8.873253    0.007742
    -0.011452    0.010764   12.702701
   C    H    I    N    Sn
     4    20    12     8     4
Direct configuration=    14
   0.54418974  0.04469340  0.50562266
   0.00037447  0.50228866  0.46068422
   0.54757911  0.00724740  0.01884396
   0.00089337  0.50133911  0.05683312
   0.31847882  0.01904095  0.52576496
   0.51943530  0.81628127  0.52242121
   0.70020878  0.88316558  0.50445978
   0.38435034  0.20208734  0.50978199
   0.62883940  0.13029274  0.49321367
   0.90914315  0.39729116  0.58828402
   0.11107059  0.59607176  0.58477963
   0.16071877  0.65917436  0.45988437
   0.84121538  0.34469034  0.46536111
   0.99358388  0.50601356  0.37530467
   0.32464579  0.98238945  0.98784357
   0.53710836  0.85233457  0.90128312
   0.71518882  0.89948526  0.94744645
   0.37134279  0.10927038  0.08616273
   0.62589650  0.06855367  0.06858561
   0.87862303  0.57737863  0.93144244
   0.10749492  0.41186171  0.92904836
   0.18374791  0.37249107  0.05229794
   0.81752308  0.62971952  0.05656003
   0.00666934  0.50619752  0.14218559
  -0.00234020 -0.00043319  0.00747267
   0.49877240  0.49741961  0.00828266
   0.70455483  0.20451903  0.74967530
   0.30010701  0.80001364  0.74943770
   0.80169721  0.69782038  0.74430790
   0.19922625  0.30031768  0.74448471
  -0.00237402 -0.00092531  0.50842215
   0.49966637  0.49736665  0.50892453
   0.73771208  0.23784922  0.25538295
   0.26346552  0.76438222  0.25504722
   0.76328812  0.73707929  0.25460227
   0.23641945  0.26447112  0.25449351
   0.58928819  0.90441297  0.51048083
   0.40541037  0.08989377  0.51328462
   0.09667168  0.59197035  0.50580311
   0.91104358  0.40881665  0.50904383
   0.60266688  0.90880444  0.95302680
   0.40481071  0.03670869  0.02934512
   0.10342167  0.42316013  0.00852800
   0.89201576  0.57419030  0.01080978
   0.00011482 -0.00272573  0.25111661
   0.50023594  0.50427832  0.24856788
  -0.00155009  0.00444899  0.75288961
   0.50161282  0.49296217  0.75474938
ortho-FASnI3                            
           1
     8.947040    0.007930   -0.009196
     0.007877    8.862368    0.007619
    -0.012905    0.010578   12.699875
   C    H    I    N    Sn
     4    20    12     8     4
Direct configuration=    15
   0.54399106  0.04445479  0.50569650
   0.00039638  0.50228183  0.46070672
   0.54738227  0.00708344  0.01872735
   0.00083691  0.50133462  0.05666234
   0.31878464  0.01877658  0.52574877
   0.51945812  0.81615996  0.52243497
   0.69998981  0.88334952  0.50449063
   0.38463704  0.20221325  0.50968506
   0.62847503  0.13041088  0.49324745
   0.90930999  0.39757200  0.58826498
   0.11092928  0.59594172  0.58488036
   0.16065221  0.65904837  0.45979910
   0.84129665  0.34483018  0.46518419
   0.99359724  0.50597392  0.37520727
   0.32484992  0.98222925  0.98774970
   0.53664591  0.85259486  0.90135222
   0.71498487  0.89992417  0.94759858