  48  48   0   0
  0.2091076E+02  0.1261480E-08  0.6307400E-09  0.1261480E-08  0.5000000E-15
   1.0000000000000000E-004
  CAR 
 cubic-FASnI3                            
      9.15303023    -20.25929343  301      2.19824120      1.00000000
    -20.259  0.0000E+00  0.0000E+00
    -20.161  0.0000E+00  0.0000E+00
    -20.063  0.0000E+00  0.0000E+00
    -19.965  0.0000E+00  0.0000E+00
    -19.867  0.0000E+00  0.0000E+00
    -19.769  0.0000E+00  0.0000E+00
    -19.671  0.0000E+00  0.0000E+00
    -19.573  0.0000E+00  0.0000E+00
    -19.475  0.0000E+00  0.0000E+00
    -19.377  0.0000E+00  0.0000E+00
    -19.279  0.0000E+00  0.0000E+00
    -19.181  0.7803E-14  0.7650E-15
    -19.083  0.1877E-06  0.1840E-07
    -18.985  0.2870E-02  0.2814E-03
    -18.887  0.6504E-01  0.6657E-02
    -18.789  0.1369E-01  0.7999E-02
    -18.691  0.7647E-05  0.8000E-02
    -18.593  0.3109E-11  0.8000E-02
    -18.495  0.0000E+00  0.8000E-02
    -18.397  0.0000E+00  0.8000E-02
    -18.298  0.0000E+00  0.8000E-02
    -18.200  0.0000E+00  0.8000E-02
    -18.102  0.0000E+00  0.8000E-02
    -18.004  0.0000E+00  0.8000E-02
    -17.906  0.0000E+00  0.8000E-02
    -17.808  0.0000E+00  0.8000E-02
    -17.710  0.0000E+00  0.8000E-02
    -17.612  0.0000E+00  0.8000E-02
    -17.514  0.0000E+00  0.8000E-02
    -17.416  0.0000E+00  0.8000E-02
    -17.318  0.0000E+00  0.8000E-02
    -17.220  0.0000E+00  0.8000E-02
    -17.122  0.0000E+00  0.8000E-02
    -17.024  0.0000E+00  0.8000E-02
    -16.926  0.4892E-14  0.8000E-02
    -16.828  0.1384E-06  0.8000E-02
    -16.730  0.2485E-02  0.8244E-02
    -16.632  0.6403E-01  0.1452E-01
    -16.534  0.1507E-01  0.1600E-01
    -16.436  0.9951E-05  0.1600E-01
    -16.338  0.4877E-11  0.1600E-01
    -16.240  0.0000E+00  0.1600E-01
    -16.142  0.0000E+00  0.1600E-01
    -16.044  0.0000E+00  0.1600E-01
    -15.945  0.0000E+00  0.1600E-01
    -15.847  0.0000E+00  0.1600E-01
    -15.749  0.0000E+00  0.1600E-01
    -15.651  0.0000E+00  0.1600E-01
    -15.553  0.0000E+00  0.1600E-01
    -15.455  0.0000E+00  0.1600E-01
    -15.357  0.0000E+00  0.1600E-01
    -15.259  0.0000E+00  0.1600E-01
    -15.161  0.0000E+00  0.1600E-01
    -15.063  0.0000E+00  0.1600E-01
    -14.965  0.0000E+00  0.1600E-01
    -14.867  0.0000E+00  0.1600E-01
    -14.769  0.0000E+00  0.1600E-01
    -14.671  0.0000E+00  0.1600E-01
    -14.573  0.0000E+00  0.1600E-01
    -14.475  0.0000E+00  0.1600E-01
    -14.377  0.0000E+00  0.1600E-01
    -14.279  0.0000E+00  0.1600E-01
    -14.181  0.0000E+00  0.1600E-01
    -14.083  0.0000E+00  0.1600E-01
    -13.985  0.0000E+00  0.1600E-01
    -13.887  0.0000E+00  0.1600E-01
    -13.789  0.0000E+00  0.1600E-01
    -13.691  0.0000E+00  0.1600E-01
    -13.593  0.0000E+00  0.1600E-01
    -13.494  0.0000E+00  0.1600E-01
    -13.396  0.0000E+00  0.1600E-01
    -13.298  0.0000E+00  0.1600E-01
    -13.200  0.0000E+00  0.1600E-01
    -13.102  0.0000E+00  0.1600E-01
    -13.004  0.0000E+00  0.1600E-01
    -12.906  0.0000E+00  0.1600E-01
    -12.808  0.0000E+00  0.1600E-01
    -12.710  0.0000E+00  0.1600E-01
    -12.612  0.0000E+00  0.1600E-01
    -12.514  0.0000E+00  0.1600E-01
    -12.416  0.0000E+00  0.1600E-01
    -12.318  0.0000E+00  0.1600E-01
    -12.220  0.0000E+00  0.1600E-01
    -12.122  0.0000E+00  0.1600E-01
    -12.024  0.0000E+00  0.1600E-01
    -11.926  0.0000E+00  0.1600E-01
    -11.828  0.0000E+00  0.1600E-01
    -11.730  0.0000E+00  0.1600E-01
    -11.632  0.0000E+00  0.1600E-01
    -11.534  0.0000E+00  0.1600E-01
    -11.436  0.0000E+00  0.1600E-01
    -11.338  0.0000E+00  0.1600E-01
    -11.240  0.0000E+00  0.1600E-01
    -11.141  0.2299E-11  0.1600E-01
    -11.043  0.1125E-05  0.1600E-01
    -10.945  0.5800E-03  0.1606E-01
    -10.847  0.9733E-02  0.1701E-01
    -10.749  0.3944E-01  0.2088E-01
    -10.651  0.3252E-01  0.2407E-01
    -10.553  0.2616E-01  0.2663E-01
    -10.455  0.4447E-01  0.3099E-01
    -10.357  0.2420E-01  0.3336E-01
    -10.259  0.6271E-01  0.3951E-01
    -10.161  0.7071E-01  0.4645E-01
    -10.063  0.1579E-01  0.4799E-01
     -9.965  0.6932E-04  0.4800E-01
     -9.867  0.7743E-09  0.4800E-01
     -9.769  0.7361E-17  0.4800E-01
     -9.671  0.0000E+00  0.4800E-01
     -9.573  0.0000E+00  0.4800E-01
     -9.475  0.0000E+00  0.4800E-01
     -9.377  0.0000E+00  0.4800E-01
     -9.279  0.0000E+00  0.4800E-01
     -9.181  0.0000E+00  0.4800E-01
     -9.083  0.8465E-16  0.4800E-01
     -8.985  0.5788E-08  0.4800E-01
     -8.887  0.3807E-03  0.4804E-01
     -8.788  0.4308E-01  0.5226E-01
     -8.690  0.3792E-01  0.5598E-01
     -8.592  0.2117E-03  0.5600E-01
     -8.494  0.1305E-08  0.5600E-01
     -8.396  0.1390E-15  0.5600E-01
     -8.298  0.1299E-07  0.5600E-01
     -8.200  0.7758E-03  0.5608E-01
     -8.102  0.5337E-01  0.6131E-01
     -8.004  0.2739E-01  0.6399E-01
     -7.906  0.5797E-04  0.6400E-01
     -7.808  0.1036E-09  0.6400E-01
     -7.710  0.0000E+00  0.6400E-01
     -7.612  0.0000E+00  0.6400E-01
     -7.514  0.0000E+00  0.6400E-01
     -7.416  0.0000E+00  0.6400E-01
     -7.318  0.0000E+00  0.6400E-01
     -7.220  0.0000E+00  0.6400E-01
     -7.122  0.0000E+00  0.6400E-01
     -7.024  0.0000E+00  0.6400E-01
     -6.926  0.0000E+00  0.6400E-01
     -6.828  0.0000E+00  0.6400E-01
     -6.730  0.6046E-13  0.6400E-01
     -6.632  0.1957E-06  0.6400E-01
     -6.534  0.1504E-02  0.6415E-01
     -6.436  0.5500E-01  0.6954E-01
     -6.337  0.2502E-01  0.7199E-01
     -6.239  0.7170E-04  0.7200E-01
     -6.141  0.3257E-09  0.7200E-01
     -6.043  0.2374E-06  0.7200E-01
     -5.945  0.2751E-03  0.7203E-01
     -5.847  0.9697E-03  0.7212E-01
     -5.749  0.2640E-03  0.7215E-01
     -5.651  0.5987E-02  0.7273E-01
     -5.553  0.1453E-02  0.7288E-01
     -5.455  0.5553E-02  0.7342E-01
     -5.357  0.1256E-01  0.7465E-01
     -5.259  0.1994E-02  0.7485E-01
     -5.161  0.1201E-01  0.7603E-01
     -5.063  0.1487E-01  0.7748E-01
     -4.965  0.5064E-01  0.8245E-01
     -4.867  0.3541E-01  0.8592E-01
     -4.769  0.1086E-01  0.8699E-01
     -4.671  0.1419E-02  0.8712E-01
     -4.573  0.8539E-03  0.8721E-01
     -4.475  0.7771E-02  0.8797E-01
     -4.377  0.5562E-01  0.9342E-01
     -4.279  0.2494E-01  0.9587E-01
     -4.181  0.2040E-03  0.9589E-01
     -4.083  0.1057E-02  0.9599E-01
     -3.984  0.7867E-04  0.9600E-01
     -3.886  0.1024E-07  0.9600E-01
     -3.788  0.8762E-15  0.9600E-01
     -3.690  0.0000E+00  0.9600E-01
     -3.592  0.0000E+00  0.9600E-01
     -3.494  0.0000E+00  0.9600E-01
     -3.396  0.0000E+00  0.9600E-01
     -3.298  0.0000E+00  0.9600E-01
     -3.200  0.0000E+00  0.9600E-01
     -3.102  0.0000E+00  0.9600E-01
     -3.004  0.0000E+00  0.9600E-01
     -2.906  0.0000E+00  0.9600E-01
     -2.808  0.0000E+00  0.9600E-01
     -2.710  0.0000E+00  0.9600E-01
     -2.612  0.0000E+00  0.9600E-01
     -2.514  0.3000E-11  0.9600E-01
     -2.416  0.1301E-05  0.9600E-01
     -2.318  0.4820E-03  0.9605E-01
     -2.220  0.1967E-02  0.9624E-01
     -2.122  0.7620E-02  0.9699E-01
     -2.024  0.1763E-01  0.9872E-01
     -1.926  0.2372E-01  0.1010E+00
     -1.828  0.9317E-02  0.1020E+00
     -1.730  0.4679E-03  0.1020E+00
     -1.631  0.1090E-02  0.1021E+00
     -1.533  0.6633E-02  0.1028E+00
     -1.435  0.1267E-01  0.1040E+00
     -1.337  0.2696E-01  0.1066E+00
     -1.239  0.4043E-01  0.1106E+00
     -1.141  0.5611E-01  0.1161E+00
     -1.043  0.3011E-01  0.1191E+00
     -0.945  0.1142E-01  0.1202E+00
     -0.847  0.1312E-01  0.1215E+00
     -0.749  0.2258E-01  0.1237E+00
     -0.651  0.2804E-01  0.1264E+00
     -0.553  0.2074E-01  0.1285E+00
     -0.455  0.2064E-01  0.1305E+00
     -0.357  0.1593E-01  0.1320E+00
     -0.259  0.4269E-01  0.1362E+00
     -0.161  0.4205E-01  0.1404E+00
     -0.063  0.4092E-01  0.1444E+00
      0.035  0.4294E-01  0.1486E+00
      0.133  0.2405E-01  0.1509E+00
      0.231  0.4978E-01  0.1558E+00
      0.329  0.4407E-01  0.1601E+00
      0.427  0.3895E-01  0.1640E+00
      0.525  0.3689E-01  0.1676E+00
      0.623  0.2141E-01  0.1697E+00
      0.721  0.1707E-01  0.1713E+00
      0.820  0.6857E-02  0.1720E+00
      0.918  0.1165E-01  0.1732E+00
      1.016  0.1148E-01  0.1743E+00
      1.114  0.4539E-02  0.1747E+00
      1.212  0.4179E-03  0.1748E+00
      1.310  0.1367E-02  0.1749E+00
      1.408  0.4216E-02  0.1753E+00
      1.506  0.4304E-02  0.1757E+00
      1.604  0.1388E-02  0.1759E+00
      1.702  0.6918E-05  0.1759E+00
      1.800  0.3524E-07  0.1759E+00
      1.898  0.1325E-03  0.1759E+00
      1.996  0.1059E-02  0.1760E+00
      2.094  0.8293E-04  0.1760E+00
      2.192  0.1156E-07  0.1760E+00
      2.290  0.1063E-14  0.1760E+00
      2.388  0.0000E+00  0.1760E+00
      2.486  0.2350E-13  0.1760E+00
      2.584  0.7742E-07  0.1760E+00
      2.682  0.1813E-03  0.1760E+00
      2.780  0.1151E-02  0.1761E+00
      2.878  0.2729E-02  0.1764E+00
      2.976  0.6314E-02  0.1770E+00
      3.074  0.9958E-02  0.1780E+00
      3.173  0.1333E-01  0.1793E+00
      3.271  0.1193E-01  0.1805E+00
      3.369  0.1002E-01  0.1815E+00
      3.467  0.3649E-02  0.1818E+00
      3.565  0.1868E-02  0.1820E+00
      3.663  0.7030E-04  0.1820E+00
      3.761  0.5760E-08  0.1820E+00
      3.859  0.3397E-15  0.1820E+00
      3.957  0.4671E-17  0.1820E+00
      4.055  0.4771E-09  0.1820E+00
      4.153  0.3473E-04  0.1820E+00
      4.251  0.5920E-02  0.1826E+00
      4.349  0.3997E-01  0.1865E+00
      4.447  0.3488E-01  0.1899E+00
      4.545  0.1994E-01  0.1919E+00
      4.643  0.1868E-01  0.1937E+00
      4.741  0.1873E-01  0.1955E+00
      4.839  0.2332E-01  0.1978E+00
      4.937  0.1850E-01  0.1996E+00
      5.035  0.1469E-01  0.2011E+00
      5.133  0.7376E-02  0.2018E+00
      5.231  0.2032E-02  0.2020E+00
      5.329  0.1074E-02  0.2021E+00
      5.427  0.5844E-03  0.2022E+00
      5.526  0.3816E-02  0.2025E+00
      5.624  0.2543E-02  0.2028E+00
      5.722  0.8764E-02  0.2037E+00
      5.820  0.9945E-02  0.2046E+00
      5.918  0.1642E-01  0.2062E+00
      6.016  0.1398E-01  0.2076E+00
      6.114  0.1257E-01  0.2088E+00
      6.212  0.2332E-01  0.2111E+00
      6.310  0.2157E-01  0.2132E+00
      6.408  0.9856E-02  0.2142E+00
      6.506  0.1418E-01  0.2156E+00
      6.604  0.1971E-01  0.2175E+00
      6.702  0.1980E-01  0.2195E+00
      6.800  0.2779E-01  0.2222E+00
      6.898  0.2968E-01  0.2251E+00
      6.996  0.3281E-01  0.2283E+00
      7.094  0.2042E-01  0.2303E+00
      7.192  0.5965E-02  0.2309E+00
      7.290  0.2388E-01  0.2333E+00
      7.388  0.2150E-01  0.2354E+00
      7.486  0.2161E-01  0.2375E+00
      7.584  0.1337E-01  0.2388E+00
      7.682  0.1048E-01  0.2398E+00
      7.780  0.7709E-03  0.2399E+00
      7.878  0.1026E-02  0.2400E+00
      7.977  0.4948E-04  0.2400E+00
      8.075  0.3626E-08  0.2400E+00
      8.173  0.1694E-15  0.2400E+00
      8.271  0.0000E+00  0.2400E+00
      8.369  0.0000E+00  0.2400E+00
      8.467  0.0000E+00  0.2400E+00
      8.565  0.0000E+00  0.2400E+00
      8.663  0.0000E+00  0.2400E+00
      8.761  0.0000E+00  0.2400E+00
      8.859  0.0000E+00  0.2400E+00
      8.957  0.0000E+00  0.2400E+00
      9.055  0.0000E+00  0.2400E+00
      9.153  0.0000E+00  0.2400E+00
