       N       E                     dE             d eps       ncg     rms          ort
DAV:   1     0.141477157240E+04    0.14148E+04   -0.10720E+05  1440   0.209E+03
DAV:   2     0.169575777698E+02   -0.13978E+04   -0.13353E+04  1440   0.277E+02
DAV:   3    -0.178368789077E+03   -0.19533E+03   -0.19331E+03  1440   0.125E+02
DAV:   4    -0.184450053359E+03   -0.60813E+01   -0.60424E+01  1440   0.232E+01
DAV:   5    -0.184630219532E+03   -0.18017E+00   -0.18005E+00  1440   0.392E+00
SDA:   6    -0.153830993141E+03    0.30799E+02   -0.18005E+00  1440   0.913E+02 0.000E+00
CGA:   7    -0.168458591202E+03   -0.14628E+02   -0.14644E+02  1440   0.533E+01 0.639E+00
CGA:   8    -0.170126366498E+03   -0.16678E+01   -0.16644E+01  1440   0.159E+01 0.157E-01
CGA:   9    -0.170634842607E+03   -0.50848E+00   -0.50922E+00  1440   0.505E+00-0.576E-02
CGA:  10    -0.170794486722E+03   -0.15964E+00   -0.15989E+00  1440   0.140E+00-0.193E-02
CGA:  11    -0.170845519275E+03   -0.51033E-01   -0.51153E-01  1440   0.369E-01-0.807E-03
CGA:  12    -0.170857456694E+03   -0.11937E-01   -0.11945E-01  1440   0.741E-02-0.515E-04
CGA:  13    -0.170860218536E+03   -0.27618E-02   -0.27588E-02  1440   0.176E-02 0.225E-04
CGA:  14    -0.170860862248E+03   -0.64371E-03   -0.64225E-03  1440   0.374E-03 0.117E-04
CGA:  15    -0.170861013069E+03   -0.15082E-03   -0.15001E-03  1440   0.884E-04 0.521E-05
CGA:  16    -0.170861050269E+03   -0.37199E-04   -0.37098E-04  1440   0.207E-04 0.608E-06
CGA:  17    -0.170861059152E+03   -0.88835E-05   -0.88977E-05  1440   0.486E-05-0.830E-07
CGA:  18    -0.170861061278E+03   -0.21255E-05   -0.20893E-05  1440   0.124E-05 0.220E-06
   1 F= -.17086106E+03 E0= -.17086106E+03  d E =-.170861E+03
       N       E                     dE             d eps       ncg     rms          ort
SDA:   1    -0.169890792744E+03    0.97027E+00    0.00000E+00  1440   0.235E+01 0.000E+00
CGA:   2    -0.170624748546E+03   -0.73396E+00   -0.73401E+00  1440   0.624E+00-0.862E-03
CGA:   3    -0.170785410814E+03   -0.16066E+00   -0.16070E+00  1440   0.133E+00 0.692E-03
CGA:   4    -0.170821719033E+03   -0.36308E-01   -0.36309E-01  1440   0.218E-01 0.105E-03
CGA:   5    -0.170828345969E+03   -0.66269E-02   -0.66262E-02  1440   0.593E-02 0.374E-04
CGA:   6    -0.170830344287E+03   -0.19983E-02   -0.19961E-02  1440   0.181E-02 0.441E-04
CGA:   7    -0.170831006151E+03   -0.66186E-03   -0.65961E-03  1440   0.458E-03 0.304E-04
CGA:   8    -0.170831178086E+03   -0.17193E-03   -0.17155E-03  1440   0.107E-03 0.506E-05
CGA:   9    -0.170831217027E+03   -0.38941E-04   -0.38992E-04  1440   0.239E-04-0.774E-06
CGA:  10    -0.170831226200E+03   -0.91729E-05   -0.92271E-05  1440   0.604E-05-0.591E-06
CGA:  11    -0.170831228572E+03   -0.23717E-05   -0.23675E-05  1440   0.143E-05 0.457E-07
   2 F= -.17083123E+03 E0= -.17083123E+03  d E =0.298327E-01
       N       E                     dE             d eps       ncg     rms          ort
SDA:   1    -0.170668553145E+03    0.16267E+00    0.00000E+00  1440   0.690E+00 0.000E+00
CGA:   2    -0.170886501870E+03   -0.21795E+00   -0.21795E+00  1440   0.181E+00-0.678E-06
CGA:   3    -0.170933414513E+03   -0.46913E-01   -0.46899E-01  1440   0.397E-01-0.154E-03
CGA:   4    -0.170944043631E+03   -0.10629E-01   -0.10627E-01  1440   0.642E-02-0.714E-04
CGA:   5    -0.170946003842E+03   -0.19602E-02   -0.19602E-02  1440   0.174E-02-0.181E-04
CGA:   6    -0.170946590728E+03   -0.58689E-03   -0.58754E-03  1440   0.537E-03-0.206E-04
CGA:   7    -0.170946786326E+03   -0.19560E-03   -0.19650E-03  1440   0.141E-03-0.147E-04
CGA:   8    -0.170946837031E+03   -0.50705E-04   -0.50842E-04  1440   0.316E-04-0.234E-05
CGA:   9    -0.170946847894E+03   -0.10863E-04   -0.10847E-04  1440   0.653E-05 0.471E-06
CGA:  10    -0.170946850360E+03   -0.24656E-05   -0.24498E-05  1440   0.156E-05 0.304E-06
   3 F= -.17094685E+03 E0= -.17094685E+03  d E =-.857891E-01
       N       E                     dE             d eps       ncg     rms          ort
SDA:   1    -0.170480645348E+03    0.46620E+00    0.00000E+00  1440   0.120E+01 0.000E+00
CGA:   2    -0.170848268877E+03   -0.36762E+00   -0.36760E+00  1440   0.313E+00-0.680E-03
CGA:   3    -0.170933384794E+03   -0.85116E-01   -0.85140E-01  1440   0.658E-01 0.105E-03
CGA:   4    -0.170950856355E+03   -0.17472E-01   -0.17471E-01  1440   0.123E-01 0.653E-05
CGA:   5    -0.170954702845E+03   -0.38465E-02   -0.38465E-02  1440   0.300E-02 0.110E-04
CGA:   6    -0.170955781408E+03   -0.10786E-02   -0.10782E-02  1440   0.930E-03 0.873E-05
CGA:   7    -0.170956134946E+03   -0.35354E-03   -0.35343E-03  1440   0.278E-03 0.175E-05
CGA:   8    -0.170956233500E+03   -0.98554E-04   -0.98534E-04  1440   0.625E-04 0.623E-06
CGA:   9    -0.170956256149E+03   -0.22649E-04   -0.22668E-04  1440   0.131E-04-0.483E-06
CGA:  10    -0.170956261236E+03   -0.50864E-05   -0.51154E-05  1440   0.317E-05-0.423E-06
CGA:  11    -0.170956262494E+03   -0.12583E-05   -0.12737E-05  1440   0.765E-06-0.177E-06
   4 F= -.17095626E+03 E0= -.17095626E+03  d E =-.941213E-02
       N       E                     dE             d eps       ncg     rms          ort
SDA:   1    -0.170885899577E+03    0.70362E-01    0.00000E+00  1440   0.197E+00 0.000E+00
CGA:   2    -0.170946577922E+03   -0.60678E-01   -0.60681E-01  1440   0.516E-01 0.219E-04
CGA:   3    -0.170960601931E+03   -0.14024E-01   -0.14022E-01  1440   0.109E-01-0.315E-05
CGA:   4    -0.170963475994E+03   -0.28741E-02   -0.28735E-02  1440   0.204E-02-0.919E-05
CGA:   5    -0.170964111211E+03   -0.63522E-03   -0.63514E-03  1440   0.498E-03-0.418E-05
CGA:   6    -0.170964290219E+03   -0.17901E-03   -0.17908E-03  1440   0.155E-03-0.234E-05
CGA:   7    -0.170964348493E+03   -0.58274E-04   -0.58288E-04  1440   0.459E-04-0.302E-06
CGA:   8    -0.170964364704E+03   -0.16211E-04   -0.16216E-04  1440   0.104E-04-0.215E-06
CGA:   9    -0.170964368333E+03   -0.36297E-05   -0.36275E-05  1440   0.208E-05 0.150E-06
   5 F= -.17096437E+03 E0= -.17096437E+03  d E =-.175180E-01
       N       E                     dE             d eps       ncg     rms          ort
SDA:   1    -0.170917440109E+03    0.46925E-01    0.00000E+00  1440   0.190E+00 0.000E+00
CGA:   2    -0.170973690521E+03   -0.56250E-01   -0.56251E-01  1440   0.299E-01 0.101E-04
CGA:   3    -0.170983411560E+03   -0.97210E-02   -0.97208E-02  1440   0.560E-02-0.255E-04
CGA:   4    -0.170984974176E+03   -0.15626E-02   -0.15627E-02  1440   0.131E-02 0.101E-05
CGA:   5    -0.170985364013E+03   -0.38984E-03   -0.38977E-03  1440   0.338E-03-0.202E-05
CGA:   6    -0.170985488173E+03   -0.12416E-03   -0.12423E-03  1440   0.992E-04-0.193E-05
CGA:   7    -0.170985525676E+03   -0.37503E-04   -0.37522E-04  1440   0.280E-04-0.377E-06
CGA:   8    -0.170985535841E+03   -0.10164E-04   -0.10166E-04  1440   0.614E-05-0.505E-07
CGA:   9    -0.170985538098E+03   -0.22570E-05   -0.22569E-05  1440   0.126E-05 0.937E-08
   6 F= -.17098554E+03 E0= -.17098554E+03  d E =-.211698E-01
       N       E                     dE             d eps       ncg     rms          ort
SDA:   1    -0.170408949688E+03    0.57659E+00    0.00000E+00  1440   0.172E+01 0.000E+00
CGA:   2    -0.170915617339E+03   -0.50667E+00   -0.50669E+00  1440   0.270E+00 0.133E-03
CGA:   3    -0.171003309205E+03   -0.87692E-01   -0.87691E-01  1440   0.506E-01-0.635E-04
CGA:   4    -0.171017387144E+03   -0.14078E-01   -0.14078E-01  1440   0.120E-01 0.775E-06
CGA:   5    -0.171020927585E+03   -0.35404E-02   -0.35403E-02  1440   0.307E-02-0.386E-05
CGA:   6    -0.171022055644E+03   -0.11281E-02   -0.11282E-02  1440   0.896E-03-0.475E-05
CGA:   7    -0.171022396541E+03   -0.34090E-03   -0.34093E-03  1440   0.254E-03-0.775E-06
CGA:   8    -0.171022488979E+03   -0.92438E-04   -0.92444E-04  1440   0.558E-04-0.175E-06
CGA:   9    -0.171022509538E+03   -0.20559E-04   -0.20565E-04  1440   0.117E-04-0.178E-06
CGA:  10    -0.171022513949E+03   -0.44112E-05   -0.44071E-05  1440   0.275E-05 0.108E-06
   7 F= -.17102251E+03 E0= -.17102251E+03  d E =-.581456E-01
       N       E                     dE             d eps       ncg     rms          ort
SDA:   1    -0.170913625416E+03    0.10888E+00    0.00000E+00  1440   0.315E+00 0.000E+00
CGA:   2    -0.171006700895E+03   -0.93075E-01   -0.93077E-01  1440   0.497E-01 0.158E-04
CGA:   3    -0.171022828424E+03   -0.16128E-01   -0.16127E-01  1440   0.932E-02-0.326E-04
CGA:   4    -0.171025417088E+03   -0.25887E-02   -0.25887E-02  1440   0.220E-02 0.643E-06
CGA:   5    -0.171026069111E+03   -0.65202E-03   -0.65191E-03  1440   0.563E-03-0.284E-05
CGA:   6    -0.171026276507E+03   -0.20740E-03   -0.20748E-03  1440   0.165E-03-0.244E-05
CGA:   7    -0.171026339238E+03   -0.62731E-04   -0.62749E-04  1440   0.468E-04-0.404E-06
CGA:   8    -0.171026356261E+03   -0.17023E-04   -0.17025E-04  1440   0.103E-04-0.751E-07
CGA:   9    -0.171026360034E+03   -0.37732E-05   -0.37742E-05  1440   0.213E-05-0.292E-07
   8 F= -.17102636E+03 E0= -.17102636E+03  d E =-.619917E-01
       N       E                     dE             d eps       ncg     rms          ort
SDA:   1    -0.171007750209E+03    0.18606E-01    0.00000E+00  1440   0.935E-01 0.000E+00
CGA:   2    -0.171034747490E+03   -0.26997E-01   -0.26997E-01  1440   0.154E-01 0.118E-05
CGA:   3    -0.171039538642E+03   -0.47912E-02   -0.47907E-02  1440   0.329E-02-0.180E-04
CGA:   4    -0.171040395990E+03   -0.85735E-03   -0.85712E-03  1440   0.738E-03-0.258E-05
CGA:   5    -0.171040626222E+03   -0.23023E-03   -0.23016E-03  1440   0.181E-03-0.330E-05
CGA:   6    -0.171040695250E+03   -0.69028E-04   -0.69103E-04  1440   0.555E-04-0.153E-05
CGA:   7    -0.171040715574E+03   -0.20324E-04   -0.20333E-04  1440   0.162E-04-0.257E-06
CGA:   8    -0.171040721179E+03   -0.56053E-05   -0.56040E-05  1440   0.363E-05 0.142E-06
CGA:   9    -0.171040722523E+03   -0.13432E-05   -0.13451E-05  1440   0.831E-06-0.607E-07
   9 F= -.17104072E+03 E0= -.17104072E+03  d E =-.143625E-01
       N       E                     dE             d eps       ncg     rms          ort
SDA:   1    -0.170777256961E+03    0.26346E+00    0.00000E+00  1440   0.844E+00 0.000E+00
CGA:   2    -0.171020624024E+03   -0.24337E+00   -0.24337E+00  1440   0.139E+00-0.875E-05
CGA:   3    -0.171063856685E+03   -0.43233E-01   -0.43232E-01  1440   0.297E-01-0.440E-04
CGA:   4    -0.171071603652E+03   -0.77470E-02   -0.77453E-02  1440   0.665E-02-0.111E-04
CGA:   5    -0.171073681544E+03   -0.20779E-02   -0.20777E-02  1440   0.163E-02-0.894E-05
CGA:   6    -0.171074301045E+03   -0.61950E-03   -0.61970E-03  1440   0.495E-03-0.396E-05
CGA:   7    -0.171074483389E+03   -0.18234E-03   -0.18237E-03  1440   0.144E-03-0.617E-06
CGA:   8    -0.171074534154E+03   -0.50765E-04   -0.50759E-04  1440   0.330E-04 0.416E-06
CGA:   9    -0.171074546139E+03   -0.11985E-04   -0.11992E-04  1440   0.737E-05-0.265E-06
CGA:  10    -0.171074548817E+03   -0.26784E-05   -0.26756E-05  1440   0.173E-05 0.104E-06
  10 F= -.17107455E+03 E0= -.17107455E+03  d E =-.481888E-01
       N       E                     dE             d eps       ncg     rms          ort
SDA:   1    -0.169906330512E+03    0.11682E+01    0.00000E+00  1440   0.339E+01 0.000E+00
CGA:   2    -0.170882845437E+03   -0.97651E+00   -0.97652E+00  1440   0.559E+00-0.141E-03
CGA:   3    -0.171056911263E+03   -0.17407E+00   -0.17407E+00  1440   0.120E+00 0.671E-05
CGA:   4    -0.171088149856E+03   -0.31239E-01   -0.31229E-01  1440   0.267E-01-0.442E-04
CGA:   5    -0.171096541433E+03   -0.83916E-02   -0.83914E-02  1440   0.652E-02-0.142E-04
CGA:   6    -0.171099032024E+03   -0.24906E-02   -0.24909E-02  1440   0.199E-02-0.593E-05
CGA:   7    -0.171099764555E+03   -0.73253E-03   -0.73256E-03  1440   0.580E-03-0.759E-06
CGA:   8    -0.171099968926E+03   -0.20437E-03   -0.20436E-03  1440   0.132E-03 0.814E-06
CGA:   9    -0.171100016887E+03   -0.47961E-04   -0.47980E-04  1440   0.294E-04-0.773E-06
CGA:  10    -0.171100027761E+03   -0.10874E-04   -0.10873E-04  1440   0.708E-05 0.570E-07
CGA:  11    -0.171100030529E+03   -0.27682E-05   -0.27646E-05  1440   0.161E-05 0.789E-07
  11 F= -.17110003E+03 E0= -.17110003E+03  d E =-.736705E-01
       N       E                     dE             d eps       ncg     rms          ort
SDA:   1    -0.170978470787E+03    0.12156E+00    0.00000E+00  1440   0.409E+00 0.000E+00
CGA:   2    -0.171094637824E+03   -0.11617E+00   -0.11617E+00  1440   0.658E-01-0.411E-05
CGA:   3    -0.171114860246E+03   -0.20222E-01   -0.20222E-01  1440   0.146E-01-0.342E-04
CGA:   4    -0.171118624714E+03   -0.37645E-02   -0.37633E-02  1440   0.313E-02-0.987E-05
CGA:   5    -0.171119633348E+03   -0.10086E-02   -0.10085E-02  1440   0.786E-03-0.811E-05
CGA:   6    -0.171119932704E+03   -0.29936E-03   -0.29951E-03  1440   0.242E-03-0.338E-05
CGA:   7    -0.171120021158E+03   -0.88453E-04   -0.88475E-04  1440   0.685E-04-0.757E-06
CGA:   8    -0.171120045407E+03   -0.24250E-04   -0.24246E-04  1440   0.153E-04 0.283E-06
CGA:   9    -0.171120050975E+03   -0.55675E-05   -0.55698E-05  1440   0.343E-05-0.991E-07
CGA:  10    -0.171120052216E+03   -0.12407E-05   -0.12388E-05  1440   0.788E-06 0.100E-06
  12 F= -.17112005E+03 E0= -.17112005E+03  d E =-.200217E-01
       N       E                     dE             d eps       ncg     rms          ort
SDA:   1    -0.170892670044E+03    0.22738E+00    0.00000E+00  1440   0.684E+00 0.000E+00
CGA:   2    -0.171086974860E+03   -0.19430E+00   -0.19430E+00  1440   0.110E+00-0.158E-04
CGA:   3    -0.171120813304E+03   -0.33838E-01   -0.33838E-01  1440   0.244E-01-0.401E-04
CGA:   4    -0.171127091119E+03   -0.62778E-02   -0.62760E-02  1440   0.522E-02-0.140E-04
CGA:   5    -0.171128775220E+03   -0.16841E-02   -0.16840E-02  1440   0.131E-02-0.104E-04
CGA:   6    -0.171129275078E+03   -0.49986E-03   -0.50006E-03  1440   0.402E-03-0.426E-05
CGA:   7    -0.171129422462E+03   -0.14738E-03   -0.14741E-03  1440   0.114E-03-0.900E-06
CGA:   8    -0.171129462852E+03   -0.40390E-04   -0.40385E-04  1440   0.255E-04 0.354E-06
CGA:   9    -0.171129472103E+03   -0.92512E-05   -0.92549E-05  1440   0.570E-05-0.160E-06
CGA:  10    -0.171129474181E+03   -0.20776E-05   -0.20749E-05  1440   0.132E-05 0.119E-06
  13 F= -.17112947E+03 E0= -.17112947E+03  d E =-.294437E-01
       N       E                     dE             d eps       ncg     rms          ort
SDA:   1    -0.171064774440E+03    0.64698E-01    0.00000E+00  1440   0.235E+00 0.000E+00
CGA:   2    -0.171131871217E+03   -0.67097E-01   -0.67095E-01  1440   0.403E-01 0.381E-05
CGA:   3    -0.171144366804E+03   -0.12496E-01   -0.12495E-01  1440   0.845E-02-0.334E-04
CGA:   4    -0.171146562288E+03   -0.21955E-02   -0.21949E-02  1440   0.178E-02-0.541E-05
CGA:   5    -0.171147104345E+03   -0.54206E-03   -0.54191E-03  1440   0.431E-03-0.489E-05
CGA:   6    -0.171147264350E+03   -0.16001E-03   -0.16014E-03  1440   0.129E-03-0.338E-05
CGA:   7    -0.171147314130E+03   -0.49780E-04   -0.49846E-04  1440   0.380E-04-0.128E-05
CGA:   8    -0.171147327495E+03   -0.13364E-04   -0.13365E-04  1440   0.883E-05-0.180E-07
CGA:   9    -0.171147330621E+03   -0.31265E-05   -0.31289E-05  1440   0.198E-05-0.146E-06
  14 F= -.17114733E+03 E0= -.17114733E+03  d E =-.178564E-01
       N       E                     dE             d eps       ncg     rms          ort
SDA:   1    -0.170424730679E+03    0.72260E+00    0.00000E+00  1440   0.213E+01 0.000E+00
CGA:   2    -0.171030990027E+03   -0.60626E+00   -0.60620E+00  1440   0.366E+00-0.225E-03
CGA:   3    -0.171144039814E+03   -0.11305E+00   -0.11305E+00  1440   0.767E-01-0.158E-05
CGA:   4    -0.171163975960E+03   -0.19936E-01   -0.19931E-01  1440   0.161E-01-0.273E-04
CGA:   5    -0.171168900586E+03   -0.49246E-02   -0.49244E-02  1440   0.389E-02-0.111E-04
CGA:   6    -0.171170345554E+03   -0.14450E-02   -0.14453E-02  1440   0.116E-02-0.854E-05
CGA:   7    -0.171170793588E+03   -0.44803E-03   -0.44821E-03  1440   0.341E-03-0.347E-05
CGA:   8    -0.171170914731E+03   -0.12114E-03   -0.12115E-03  1440   0.801E-04-0.613E-07
CGA:   9    -0.171170942876E+03   -0.28145E-04   -0.28154E-04  1440   0.177E-04-0.608E-06
CGA:  10    -0.171170949406E+03   -0.65290E-05   -0.65349E-05  1440   0.410E-05-0.163E-06
CGA:  11    -0.171170951035E+03   -0.16298E-05   -0.16308E-05  1440   0.101E-05-0.112E-07
  15 F= -.17117095E+03 E0= -.17117095E+03  d E =-.414769E-01
       N       E                     dE             d eps       ncg     rms          ort
SDA:   1    -0.171074591873E+03    0.96358E-01    0.00000E+00  1440   0.267E+00 0.000E+00
CGA:   2    -0.171153967027E+03   -0.79375E-01   -0.79372E-01  1440   0.655E-01-0.134E-04
CGA:   3    -0.171172717529E+03   -0.18751E-01   -0.18751E-01  1440   0.137E-01-0.175E-04
CGA:   4    -0.171176209830E+03   -0.34923E-02   -0.34913E-02  1440   0.218E-02-0.100E-04
CGA:   5    -0.171176904921E+03   -0.69509E-03   -0.69499E-03  1440   0.460E-03-0.568E-05
CGA:   6    -0.171177071013E+03   -0.16609E-03   -0.16615E-03  1440   0.134E-03-0.238E-05
CGA:   7    -0.171177122416E+03   -0.51403E-04   -0.51457E-04  1440   0.445E-04-0.113E-05
CGA:   8    -0.171177138567E+03   -0.16150E-04   -0.16156E-04  1440   0.114E-04-0.214E-06
CGA:   9    -0.171177142758E+03   -0.41908E-05   -0.41968E-05  1440   0.269E-05-0.207E-06
  16 F= -.17117714E+03 E0= -.17117714E+03  d E =-.619172E-02
       N       E                     dE             d eps       ncg     rms          ort
SDA:   1    -0.171176238116E+03    0.90045E-03    0.00000E+00  1440   0.256E-02 0.000E+00
CGA:   2    -0.171176998878E+03   -0.76076E-03   -0.76076E-03  1440   0.625E-03-0.972E-07
CGA:   3    -0.171177177365E+03   -0.17849E-03   -0.17863E-03  1440   0.129E-03 0.260E-05
CGA:   4    -0.171177210187E+03   -0.32823E-04   -0.32901E-04  1440   0.203E-04 0.918E-06
CGA:   5    -0.171177216611E+03   -0.64232E-05   -0.64349E-05  1440   0.407E-05 0.575E-06
CGA:   6    -0.171177218069E+03   -0.14585E-05   -0.14554E-05  1440   0.109E-05 0.249E-06
CGA:   7    -0.171177218493E+03   -0.42385E-06   -0.42070E-06  1440   0.338E-06 0.114E-06
CGA:   8    -0.171177218628E+03   -0.13540E-06   -0.13488E-06  1440   0.908E-07 0.301E-07
  17 F= -.17117722E+03 E0= -.17117722E+03  d E =-.626759E-02
       N       E                     dE             d eps       ncg     rms          ort
SDA:   1    -0.171142719844E+03    0.34499E-01    0.00000E+00  1440   0.117E+00 0.000E+00
CGA:   2    -0.171175667517E+03   -0.32948E-01   -0.32947E-01  1440   0.213E-01-0.652E-05
CGA:   3    -0.171182368459E+03   -0.67009E-02   -0.67006E-02  1440   0.429E-02-0.189E-04
CGA:   4    -0.171183472896E+03   -0.11044E-02   -0.11038E-02  1440   0.877E-03-0.744E-05
CGA:   5    -0.171183744426E+03   -0.27153E-03   -0.27141E-03  1440   0.211E-03-0.600E-05
CGA:   6    -0.171183824757E+03   -0.80331E-04   -0.80488E-04  1440   0.624E-04-0.285E-05
CGA:   7    -0.171183849037E+03   -0.24280E-04   -0.24328E-04  1440   0.186E-04-0.747E-06
CGA:   8    -0.171183855556E+03   -0.65194E-05   -0.65206E-05  1440   0.428E-05-0.521E-07
CGA:   9    -0.171183857103E+03   -0.15470E-05   -0.15491E-05  1440   0.100E-05-0.687E-07
  18 F= -.17118386E+03 E0= -.17118386E+03  d E =-.663847E-02
       N       E                     dE             d eps       ncg     rms          ort
SDA:   1    -0.171147321157E+03    0.36534E-01    0.00000E+00  1440   0.109E+00 0.000E+00
CGA:   2    -0.171178269512E+03   -0.30948E-01   -0.30948E-01  1440   0.200E-01-0.628E-05
CGA:   3    -0.171184565495E+03   -0.62960E-02   -0.62956E-02  1440   0.404E-02-0.184E-04
CGA:   4    -0.171185603564E+03   -0.10381E-02   -0.10375E-02  1440   0.825E-03-0.723E-05
CGA:   5    -0.171185858896E+03   -0.25533E-03   -0.25521E-03  1440   0.199E-03-0.583E-05
CGA:   6    -0.171185934638E+03   -0.75743E-04   -0.75896E-04  1440   0.590E-04-0.278E-05
CGA:   7    -0.171185957566E+03   -0.22927E-04   -0.22973E-04  1440   0.176E-04-0.725E-06
CGA:   8    -0.171185963722E+03   -0.61566E-05   -0.61578E-05  1440   0.405E-05-0.529E-07
CGA:   9    -0.171185965187E+03   -0.14646E-05   -0.14667E-05  1440   0.953E-06-0.684E-07
  19 F= -.17118597E+03 E0= -.17118597E+03  d E =-.874656E-02
       N       E                     dE             d eps       ncg     rms          ort
SDA:   1    -0.171135946724E+03    0.50017E-01    0.00000E+00  1440   0.141E+00 0.000E+00
CGA:   2    -0.171179293439E+03   -0.43347E-01   -0.43346E-01  1440   0.313E-01-0.260E-05
CGA:   3    -0.171189151148E+03   -0.98577E-02   -0.98574E-02  1440   0.567E-02-0.135E-04
CGA:   4    -0.171190681942E+03   -0.15308E-02   -0.15308E-02  1440   0.106E-02 0.816E-06
CGA:   5    -0.171191003487E+03   -0.32155E-03   -0.32153E-03  1440   0.276E-03-0.654E-06
CGA:   6    -0.171191102673E+03   -0.99186E-04   -0.99222E-04  1440   0.834E-04-0.118E-05
CGA:   7    -0.171191135217E+03   -0.32544E-04   -0.32585E-04  1440   0.225E-04-0.687E-06
CGA:   8    -0.171191143267E+03   -0.80501E-05   -0.80538E-05  1440   0.490E-05-0.140E-06
CGA:   9    -0.171191144982E+03   -0.17152E-05   -0.17156E-05  1440   0.106E-05-0.112E-07
  20 F= -.17119114E+03 E0= -.17119114E+03  d E =-.517980E-02
       N       E                     dE             d eps       ncg     rms          ort
SDA:   1    -0.171182194200E+03    0.89491E-02    0.00000E+00  1440   0.241E-01 0.000E+00
CGA:   2    -0.171189597503E+03   -0.74033E-02   -0.74033E-02  1440   0.534E-02 0.177E-06
CGA:   3    -0.171191279936E+03   -0.16824E-02   -0.16823E-02  1440   0.967E-03-0.558E-05
CGA:   4    -0.171191540689E+03   -0.26075E-03   -0.26077E-03  1440   0.182E-03 0.251E-06
CGA:   5    -0.171191595609E+03   -0.54920E-04   -0.54908E-04  1440   0.473E-04-0.343E-06
CGA:   6    -0.171191612733E+03   -0.17124E-04   -0.17141E-04  1440   0.145E-04-0.536E-06
CGA:   7    -0.171191618398E+03   -0.56647E-05   -0.56832E-05  1440   0.396E-05-0.298E-06
CGA:   8    -0.171191619794E+03   -0.13960E-05   -0.13975E-05  1440   0.858E-06-0.580E-07
  21 F= -.17119162E+03 E0= -.17119162E+03  d E =-.565461E-02
       N       E                     dE             d eps       ncg     rms          ort
SDA:   1    -0.171135690489E+03    0.55928E-01    0.00000E+00  1440   0.159E+00 0.000E+00
CGA:   2    -0.171182223677E+03   -0.46533E-01   -0.46533E-01  1440   0.333E-01 0.506E-05
CGA:   3    -0.171192419021E+03   -0.10195E-01   -0.10195E-01  1440   0.597E-02 0.117E-05
CGA:   4    -0.171194051240E+03   -0.16322E-02   -0.16325E-02  1440   0.115E-02 0.351E-05
CGA:   5    -0.171194392322E+03   -0.34108E-03   -0.34114E-03  1440   0.258E-03 0.165E-05
CGA:   6    -0.171194486815E+03   -0.94493E-04   -0.94488E-04  1440   0.717E-04 0.143E-06
CGA:   7    -0.171194516040E+03   -0.29225E-04   -0.29198E-04  1440   0.206E-04 0.362E-06
CGA:   8    -0.171194523713E+03   -0.76728E-05   -0.76715E-05  1440   0.468E-05 0.424E-07
CGA:   9    -0.171194525411E+03   -0.16981E-05   -0.16987E-05  1440   0.980E-06-0.158E-07
  22 F= -.17119453E+03 E0= -.17119453E+03  d E =-.290562E-02
       N       E                     dE             d eps       ncg     rms          ort
SDA:   1    -0.171193194781E+03    0.13289E-02    0.00000E+00  1440   0.374E-02 0.000E+00
CGA:   2    -0.171194288064E+03   -0.10933E-02   -0.10933E-02  1440   0.782E-03-0.300E-06
CGA:   3    -0.171194527115E+03   -0.23905E-03   -0.23906E-03  1440   0.141E-03 0.335E-06
CGA:   4    -0.171194565336E+03   -0.38221E-04   -0.38252E-04  1440   0.272E-04 0.465E-06
CGA:   5    -0.171194573319E+03   -0.79825E-05   -0.79924E-05  1440   0.600E-05 0.235E-06
CGA:   6    -0.171194575564E+03   -0.22452E-05   -0.22455E-05  1440   0.171E-05-0.915E-09
CGA:   7    -0.171194576250E+03   -0.68565E-06   -0.68270E-06  1440   0.476E-06 0.492E-07
CGA:   8    -0.171194576432E+03   -0.18224E-06   -0.18221E-06  1440   0.113E-06 0.575E-08
  23 F= -.17119458E+03 E0= -.17119458E+03  d E =-.295664E-02
       N       E                     dE             d eps       ncg     rms          ort
SDA:   1    -0.171178318046E+03    0.16258E-01    0.00000E+00  1440   0.535E-01 0.000E+00
CGA:   2    -0.171193752873E+03   -0.15435E-01   -0.15435E-01  1440   0.997E-02-0.960E-06
CGA:   3    -0.171196775061E+03   -0.30222E-02   -0.30224E-02  1440   0.191E-02 0.581E-05
CGA:   4    -0.171197294989E+03   -0.51993E-03   -0.52010E-03  1440   0.388E-03 0.259E-05
CGA:   5    -0.171197413734E+03   -0.11875E-03   -0.11879E-03  1440   0.931E-04 0.150E-05
CGA:   6    -0.171197448676E+03   -0.34941E-04   -0.34916E-04  1440   0.266E-04 0.620E-06
CGA:   7    -0.171197459266E+03   -0.10591E-04   -0.10560E-04  1440   0.722E-05 0.513E-06
CGA:   8    -0.171197461950E+03   -0.26843E-05   -0.26837E-05  1440   0.169E-05 0.274E-07
  24 F= -.17119746E+03 E0= -.17119746E+03  d E =-.288552E-02
       N       E                     dE             d eps       ncg     rms          ort
SDA:   1    -0.171031806872E+03    0.16565E+00    0.00000E+00  1440   0.481E+00 0.000E+00
CGA:   2    -0.171170646315E+03   -0.13884E+00   -0.13884E+00  1440   0.896E-01 0.362E-04
CGA:   3    -0.171197862783E+03   -0.27216E-01   -0.27216E-01  1440   0.171E-01 0.998E-05
CGA:   4    -0.171202537025E+03   -0.46742E-02   -0.46750E-02  1440   0.350E-02 0.947E-05
CGA:   5    -0.171203608164E+03   -0.10711E-02   -0.10713E-02  1440   0.843E-03 0.497E-05
CGA:   6    -0.171203924334E+03   -0.31617E-03   -0.31607E-03  1440   0.242E-03 0.221E-05
CGA:   7    -0.171204020986E+03   -0.96652E-04   -0.96548E-04  1440   0.664E-04 0.162E-05
CGA:   8    -0.171204045235E+03   -0.24248E-04   -0.24247E-04  1440   0.152E-04 0.566E-07
CGA:   9    -0.171204050791E+03   -0.55566E-05   -0.55576E-05  1440   0.346E-05-0.281E-07
CGA:  10    -0.171204052141E+03   -0.13501E-05   -0.13568E-05  1440   0.860E-06-0.122E-06
  25 F= -.17120405E+03 E0= -.17120405E+03  d E =-.947571E-02
       N       E                     dE             d eps       ncg     rms          ort
SDA:   1    -0.170519297008E+03    0.68475E+00    0.00000E+00  1440   0.192E+01 0.000E+00
CGA:   2    -0.171074148290E+03   -0.55485E+00   -0.55489E+00  1440   0.358E+00 0.297E-03
CGA:   3    -0.171183111978E+03   -0.10896E+00   -0.10896E+00  1440   0.685E-01-0.146E-04
CGA:   4    -0.171201771251E+03   -0.18659E-01   -0.18663E-01  1440   0.140E-01 0.301E-04
CGA:   5    -0.171206069610E+03   -0.42984E-02   -0.42987E-02  1440   0.339E-02 0.111E-04
CGA:   6    -0.171207338055E+03   -0.12684E-02   -0.12682E-02  1440   0.973E-03 0.539E-05
CGA:   7    -0.171207726738E+03   -0.38868E-03   -0.38847E-03  1440   0.268E-03 0.336E-05
CGA:   8    -0.171207824011E+03   -0.97273E-04   -0.97272E-04  1440   0.610E-04 0.531E-07
CGA:   9    -0.171207846270E+03   -0.22259E-04   -0.22263E-04  1440   0.139E-04-0.166E-06
CGA:  10    -0.171207851611E+03   -0.53407E-05   -0.53550E-05  1440   0.336E-05-0.313E-06
CGA:  11    -0.171207852946E+03   -0.13352E-05   -0.13324E-05  1440   0.727E-06 0.502E-07
  26 F= -.17120785E+03 E0= -.17120785E+03  d E =-.132765E-01
       N       E                     dE             d eps       ncg     rms          ort
SDA:   1    -0.171205592401E+03    0.22592E-02    0.00000E+00  1440   0.950E-02 0.000E+00
CGA:   2    -0.171208331947E+03   -0.27395E-02   -0.27395E-02  1440   0.169E-02-0.984E-06
CGA:   3    -0.171208845501E+03   -0.51355E-03   -0.51366E-03  1440   0.325E-03 0.231E-05
CGA:   4    -0.171208934893E+03   -0.89392E-04   -0.89473E-04  1440   0.664E-04 0.114E-05
CGA:   5    -0.171208955341E+03   -0.20448E-04   -0.20470E-04  1440   0.164E-04 0.631E-06
CGA:   6    -0.171208961469E+03   -0.61286E-05   -0.61208E-05  1440   0.469E-05 0.276E-06
CGA:   7    -0.171208963324E+03   -0.18548E-05   -0.18469E-05  1440   0.122E-05 0.180E-06
CGA:   8    -0.171208963793E+03   -0.46850E-06   -0.46848E-06  1440   0.293E-06 0.748E-08
  27 F= -.17120896E+03 E0= -.17120896E+03  d E =-.111085E-02
       N       E                     dE             d eps       ncg     rms          ort
SDA:   1    -0.171181706220E+03    0.27257E-01    0.00000E+00  1440   0.856E-01 0.000E+00
CGA:   2    -0.171206377530E+03   -0.24671E-01   -0.24671E-01  1440   0.152E-01-0.954E-06
CGA:   3    -0.171211003879E+03   -0.46263E-02   -0.46266E-02  1440   0.292E-02 0.662E-05
CGA:   4    -0.171211808789E+03   -0.80491E-03   -0.80516E-03  1440   0.600E-03 0.354E-05
CGA:   5    -0.171211993744E+03   -0.18496E-03   -0.18502E-03  1440   0.149E-03 0.198E-05
CGA:   6    -0.171212049472E+03   -0.55728E-04   -0.55697E-04  1440   0.428E-04 0.885E-06
CGA:   7    -0.171212066476E+03   -0.17004E-04   -0.16974E-04  1440   0.113E-04 0.545E-06
CGA:   8    -0.171212070659E+03   -0.41823E-05   -0.41824E-05  1440   0.261E-05 0.348E-08
  28 F= -.17121207E+03 E0= -.17121207E+03  d E =-.421771E-02
       N       E                     dE             d eps       ncg     rms          ort
SDA:   1    -0.171095850078E+03    0.11622E+00    0.00000E+00  1440   0.342E+00 0.000E+00
CGA:   2    -0.171194521265E+03   -0.98671E-01   -0.98671E-01  1440   0.609E-01 0.669E-05
CGA:   3    -0.171213032463E+03   -0.18511E-01   -0.18511E-01  1440   0.117E-01 0.119E-04
CGA:   4    -0.171216249095E+03   -0.32166E-02   -0.32172E-02  1440   0.240E-02 0.794E-05
CGA:   5    -0.171216989197E+03   -0.74010E-03   -0.74022E-03  1440   0.598E-03 0.429E-05
CGA:   6    -0.171217212582E+03   -0.22339E-03   -0.22331E-03  1440   0.172E-03 0.198E-05
CGA:   7    -0.171217281024E+03   -0.68442E-04   -0.68376E-04  1440   0.457E-04 0.113E-05
CGA:   8    -0.171217297766E+03   -0.16741E-04   -0.16742E-04  1440   0.105E-04-0.618E-08
CGA:   9    -0.171217301593E+03   -0.38278E-05   -0.38294E-05  1440   0.237E-05-0.584E-07
  29 F= -.17121730E+03 E0= -.17121730E+03  d E =-.944865E-02
       N       E                     dE             d eps       ncg     rms          ort
SDA:   1    -0.170738162813E+03    0.47913E+00    0.00000E+00  1440   0.137E+01 0.000E+00
CGA:   2    -0.171132679054E+03   -0.39452E+00   -0.39451E+00  1440   0.243E+00 0.648E-04
CGA:   3    -0.171206761896E+03   -0.74083E-01   -0.74082E-01  1440   0.467E-01 0.188E-04
CGA:   4    -0.171219600213E+03   -0.12838E-01   -0.12841E-01  1440   0.962E-02 0.222E-04
CGA:   5    -0.171222564992E+03   -0.29648E-02   -0.29651E-02  1440   0.239E-02 0.988E-05
CGA:   6    -0.171223458568E+03   -0.89358E-03   -0.89340E-03  1440   0.690E-03 0.476E-05
CGA:   7    -0.171223732671E+03   -0.27410E-03   -0.27396E-03  1440   0.183E-03 0.236E-05
CGA:   8    -0.171223799534E+03   -0.66864E-04   -0.66865E-04  1440   0.417E-04-0.578E-07
CGA:   9    -0.171223814816E+03   -0.15281E-04   -0.15287E-04  1440   0.944E-05-0.204E-06
CGA:  10    -0.171223818511E+03   -0.36951E-05   -0.37105E-05  1440   0.232E-05-0.292E-06
  30 F= -.17122382E+03 E0= -.17122382E+03  d E =-.159656E-01
       N       E                     dE             d eps       ncg     rms          ort
SDA:   1    -0.169279137689E+03    0.19447E+01    0.00000E+00  1440   0.547E+01 0.000E+00
CGA:   2    -0.170855614443E+03   -0.15765E+01   -0.15765E+01  1440   0.973E+00 0.468E-03
CGA:   3    -0.171152536875E+03   -0.29692E+00   -0.29692E+00  1440   0.186E+00 0.970E-04
CGA:   4    -0.171203735860E+03   -0.51199E-01   -0.51213E-01  1440   0.385E-01 0.978E-04
CGA:   5    -0.171215605040E+03   -0.11869E-01   -0.11870E-01  1440   0.959E-02 0.259E-04
CGA:   6    -0.171219181728E+03   -0.35767E-02   -0.35762E-02  1440   0.277E-02 0.130E-04
CGA:   7    -0.171220281171E+03   -0.10994E-02   -0.10992E-02  1440   0.737E-03 0.521E-05
CGA:   8    -0.171220549397E+03   -0.26823E-03   -0.26823E-03  1440   0.167E-03-0.282E-06
CGA:   9    -0.171220610560E+03   -0.61163E-04   -0.61181E-04  1440   0.376E-04-0.767E-06
CGA:  10    -0.171220625186E+03   -0.14627E-04   -0.14664E-04  1440   0.908E-05-0.791E-06
CGA:  11    -0.171220628853E+03   -0.36669E-05   -0.36676E-05  1440   0.204E-05-0.733E-08
  31 F= -.17122063E+03 E0= -.17122063E+03  d E =-.127759E-01
       N       E                     dE             d eps       ncg     rms          ort
SDA:   1    -0.170372628830E+03    0.84800E+00    0.00000E+00  1440   0.241E+01 0.000E+00
CGA:   2    -0.171065099189E+03   -0.69247E+00   -0.69253E+00  1440   0.428E+00 0.153E-04
CGA:   3    -0.171194833576E+03   -0.12973E+00   -0.12975E+00  1440   0.834E-01 0.214E-04
CGA:   4    -0.171217691828E+03   -0.22858E-01   -0.22854E-01  1440   0.171E-01-0.315E-04
CGA:   5    -0.171222979618E+03   -0.52878E-02   -0.52876E-02  1440   0.423E-02-0.604E-05
CGA:   6    -0.171224562001E+03   -0.15824E-02   -0.15824E-02  1440   0.122E-02-0.175E-05
CGA:   7    -0.171225047474E+03   -0.48547E-03   -0.48559E-03  1440   0.327E-03-0.229E-05
CGA:   8    -0.171225165355E+03   -0.11788E-03   -0.11788E-03  1440   0.746E-04-0.121E-06
CGA:   9    -0.171225192532E+03   -0.27177E-04   -0.27182E-04  1440   0.168E-04-0.278E-06
CGA:  10    -0.171225198985E+03   -0.64531E-05   -0.64525E-05  1440   0.393E-05 0.216E-07
CGA:  11    -0.171225200674E+03   -0.16886E-05   -0.16985E-05  1440   0.935E-06-0.119E-06
  32 F= -.17122520E+03 E0= -.17122520E+03  d E =-.173477E-01
       N       E                     dE             d eps       ncg     rms          ort
SDA:   1    -0.171215501947E+03    0.96970E-02    0.00000E+00  1440   0.409E-01 0.000E+00
CGA:   2    -0.171227319244E+03   -0.11817E-01   -0.11817E-01  1440   0.796E-02-0.294E-05
CGA:   3    -0.171229744208E+03   -0.24250E-02   -0.24248E-02  1440   0.155E-02-0.337E-05
CGA:   4    -0.171230171203E+03   -0.42699E-03   -0.42697E-03  1440   0.305E-03-0.397E-06
CGA:   5    -0.171230263588E+03   -0.92385E-04   -0.92404E-04  1440   0.724E-04 0.422E-06
CGA:   6    -0.171230290785E+03   -0.27197E-04   -0.27214E-04  1440   0.210E-04-0.576E-06
CGA:   7    -0.171230299232E+03   -0.84475E-05   -0.84696E-05  1440   0.595E-05-0.376E-06
CGA:   8    -0.171230301332E+03   -0.21001E-05   -0.21010E-05  1440   0.137E-05-0.822E-07
  33 F= -.17123030E+03 E0= -.17123030E+03  d E =-.510066E-02
       N       E                     dE             d eps       ncg     rms          ort
SDA:   1    -0.171106547056E+03    0.12375E+00    0.00000E+00  1440   0.368E+00 0.000E+00
CGA:   2    -0.171212898048E+03   -0.10635E+00   -0.10635E+00  1440   0.716E-01-0.211E-05
CGA:   3    -0.171234734436E+03   -0.21836E-01   -0.21835E-01  1440   0.140E-01-0.123E-04
CGA:   4    -0.171238570982E+03   -0.38365E-02   -0.38368E-02  1440   0.274E-02 0.336E-06
CGA:   5    -0.171239401845E+03   -0.83086E-03   -0.83093E-03  1440   0.654E-03 0.177E-05
CGA:   6    -0.171239645289E+03   -0.24344E-03   -0.24349E-03  1440   0.188E-03-0.141E-05
CGA:   7    -0.171239720702E+03   -0.75413E-04   -0.75477E-04  1440   0.527E-04-0.106E-05
CGA:   8    -0.171239739539E+03   -0.18837E-04   -0.18840E-04  1440   0.122E-04-0.246E-06
CGA:   9    -0.171239743789E+03   -0.42508E-05   -0.42506E-05  1440   0.259E-05 0.759E-07
  34 F= -.17123974E+03 E0= -.17123974E+03  d E =-.145431E-01
       N       E                     dE             d eps       ncg     rms          ort
SDA:   1    -0.170698369232E+03    0.54137E+00    0.00000E+00  1440   0.147E+01 0.000E+00
CGA:   2    -0.171124075790E+03   -0.42571E+00   -0.42568E+00  1440   0.287E+00 0.226E-04
CGA:   3    -0.171211561575E+03   -0.87486E-01   -0.87482E-01  1440   0.559E-01-0.302E-04
CGA:   4    -0.171226897460E+03   -0.15336E-01   -0.15338E-01  1440   0.110E-01 0.116E-04
CGA:   5    -0.171230230305E+03   -0.33328E-02   -0.33330E-02  1440   0.262E-02 0.539E-05
CGA:   6    -0.171231202815E+03   -0.97251E-03   -0.97256E-03  1440   0.748E-03-0.171E-05
CGA:   7    -0.171231503171E+03   -0.30036E-03   -0.30047E-03  1440   0.210E-03-0.188E-05
CGA:   8    -0.171231578359E+03   -0.75188E-04   -0.75196E-04  1440   0.487E-04-0.527E-06
CGA:   9    -0.171231595484E+03   -0.17125E-04   -0.17125E-04  1440   0.105E-04 0.829E-07
CGA:  10    -0.171231599559E+03   -0.40756E-05   -0.40926E-05  1440   0.265E-05-0.360E-06
  35 F= -.17123160E+03 E0= -.17123160E+03  d E =-.639889E-02
       N       E                     dE             d eps       ncg     rms          ort
SDA:   1    -0.170959771360E+03    0.27182E+00    0.00000E+00  1440   0.778E+00 0.000E+00
CGA:   2    -0.171184306740E+03   -0.22454E+00   -0.22455E+00  1440   0.152E+00 0.347E-04
CGA:   3    -0.171230374083E+03   -0.46067E-01   -0.46070E-01  1440   0.300E-01 0.263E-04
CGA:   4    -0.171238599224E+03   -0.82251E-02   -0.82244E-02  1440   0.589E-02-0.239E-05
CGA:   5    -0.171240391317E+03   -0.17921E-02   -0.17921E-02  1440   0.140E-02-0.102E-05
CGA:   6    -0.171240912870E+03   -0.52155E-03   -0.52144E-03  1440   0.399E-03 0.343E-05
CGA:   7    -0.171241072641E+03   -0.15977E-03   -0.15966E-03  1440   0.112E-03 0.186E-05
CGA:   8    -0.171241112670E+03   -0.40029E-04   -0.40025E-04  1440   0.262E-04 0.370E-06
CGA:   9    -0.171241122055E+03   -0.93848E-05   -0.93879E-05  1440   0.574E-05-0.242E-06
CGA:  10    -0.171241124157E+03   -0.21023E-05   -0.20995E-05  1440   0.129E-05 0.125E-06
  36 F= -.17124112E+03 E0= -.17124112E+03  d E =-.159235E-01
       N       E                     dE             d eps       ncg     rms          ort
SDA:   1    -0.171224161088E+03    0.16961E-01    0.00000E+00  1440   0.571E-01 0.000E+00
CGA:   2    -0.171240937194E+03   -0.16776E-01   -0.16776E-01  1440   0.123E-01-0.604E-05
CGA:   3    -0.171244513652E+03   -0.35765E-02   -0.35760E-02  1440   0.271E-02-0.719E-05
CGA:   4    -0.171245216624E+03   -0.70297E-03   -0.70256E-03  1440   0.492E-03-0.512E-05
CGA:   5    -0.171245370817E+03   -0.15419E-03   -0.15415E-03  1440   0.110E-03-0.155E-05
CGA:   6    -0.171245411967E+03   -0.41150E-04   -0.41207E-04  1440   0.329E-04-0.152E-05
CGA:   7    -0.171245424837E+03   -0.12870E-04   -0.12907E-04  1440   0.103E-04-0.660E-06
CGA:   8    -0.171245428455E+03   -0.36179E-05   -0.36205E-05  1440   0.250E-05-0.170E-06
  37 F= -.17124543E+03 E0= -.17124543E+03  d E =-.430430E-02
       N       E                     dE             d eps       ncg     rms          ort
SDA:   1    -0.171211133038E+03    0.34292E-01    0.00000E+00  1440   0.975E-01 0.000E+00
CGA:   2    -0.171239766008E+03   -0.28633E-01   -0.28633E-01  1440   0.210E-01-0.639E-05
CGA:   3    -0.171245871013E+03   -0.61050E-02   -0.61043E-02  1440   0.462E-02-0.102E-04
CGA:   4    -0.171247069999E+03   -0.11990E-02   -0.11985E-02  1440   0.837E-03-0.668E-05
CGA:   5    -0.171247332816E+03   -0.26282E-03   -0.26278E-03  1440   0.188E-03-0.203E-05
CGA:   6    -0.171247403116E+03   -0.70300E-04   -0.70382E-04  1440   0.564E-04-0.200E-05
CGA:   7    -0.171247425213E+03   -0.22098E-04   -0.22151E-04  1440   0.177E-04-0.875E-06
CGA:   8    -0.171247431433E+03   -0.62203E-05   -0.62248E-05  1440   0.428E-05-0.231E-06
CGA:   9    -0.171247432909E+03   -0.14760E-05   -0.14754E-05  1440   0.918E-06 0.824E-07
  38 F= -.17124743E+03 E0= -.17124743E+03  d E =-.630875E-02
       N       E                     dE             d eps       ncg     rms          ort
SDA:   1    -0.171228725807E+03    0.18706E-01    0.00000E+00  1440   0.588E-01 0.000E+00
CGA:   2    -0.171247169415E+03   -0.18444E-01   -0.18443E-01  1440   0.123E-01-0.336E-05
CGA:   3    -0.171250927279E+03   -0.37579E-02   -0.37577E-02  1440   0.274E-02-0.500E-05
CGA:   4    -0.171251627269E+03   -0.69999E-03   -0.69971E-03  1440   0.500E-03-0.306E-05
CGA:   5    -0.171251779969E+03   -0.15270E-03   -0.15263E-03  1440   0.114E-03-0.251E-05
CGA:   6    -0.171251821902E+03   -0.41933E-04   -0.41951E-04  1440   0.357E-04-0.485E-06
CGA:   7    -0.171251835567E+03   -0.13664E-04   -0.13683E-04  1440   0.107E-04-0.374E-06
CGA:   8    -0.171251839337E+03   -0.37705E-05   -0.37713E-05  1440   0.251E-05-0.357E-07
  39 F= -.17125184E+03 E0= -.17125184E+03  d E =-.440643E-02
       N       E                     dE             d eps       ncg     rms          ort
SDA:   1    -0.171210509913E+03    0.41326E-01    0.00000E+00  1440   0.111E+00 0.000E+00
CGA:   2    -0.171245258985E+03   -0.34749E-01   -0.34748E-01  1440   0.231E-01-0.837E-05
CGA:   3    -0.171252338330E+03   -0.70793E-02   -0.70793E-02  1440   0.515E-02-0.575E-05
CGA:   4    -0.171253656243E+03   -0.13179E-02   -0.13175E-02  1440   0.938E-03-0.429E-05
CGA:   5    -0.171253942927E+03   -0.28668E-03   -0.28659E-03  1440   0.214E-03-0.339E-05
CGA:   6    -0.171254021836E+03   -0.78909E-04   -0.78934E-04  1440   0.671E-04-0.635E-06
CGA:   7    -0.171254047553E+03   -0.25718E-04   -0.25744E-04  1440   0.201E-04-0.510E-06
CGA:   8    -0.171254054659E+03   -0.71052E-05   -0.71063E-05  1440   0.472E-05-0.484E-07
CGA:   9    -0.171254056373E+03   -0.17142E-05   -0.17175E-05  1440   0.107E-05-0.115E-06
  40 F= -.17125406E+03 E0= -.17125406E+03  d E =-.662346E-02
       N       E                     dE             d eps       ncg     rms          ort
SDA:   1    -0.171238336599E+03    0.15718E-01    0.00000E+00  1440   0.521E-01 0.000E+00
CGA:   2    -0.171253770012E+03   -0.15433E-01   -0.15433E-01  1440   0.107E-01 0.594E-05
CGA:   3    -0.171256873909E+03   -0.31039E-02   -0.31039E-02  1440   0.242E-02-0.266E-05
CGA:   4    -0.171257530336E+03   -0.65643E-03   -0.65645E-03  1440   0.440E-03 0.562E-06
CGA:   5    -0.171257668053E+03   -0.13772E-03   -0.13770E-03  1440   0.108E-03-0.986E-06
CGA:   6    -0.171257706896E+03   -0.38843E-04   -0.38838E-04  1440   0.324E-04 0.186E-06
CGA:   7    -0.171257719650E+03   -0.12755E-04   -0.12772E-04  1440   0.973E-05-0.296E-06
CGA:   8    -0.171257723087E+03   -0.34364E-05   -0.34374E-05  1440   0.233E-05-0.405E-07
  41 F= -.17125772E+03 E0= -.17125772E+03  d E =-.366671E-02
       N       E                     dE             d eps       ncg     rms          ort
SDA:   1    -0.171179839637E+03    0.77880E-01    0.00000E+00  1440   0.217E+00 0.000E+00
CGA:   2    -0.171244277265E+03   -0.64438E-01   -0.64434E-01  1440   0.448E-01-0.150E-04
CGA:   3    -0.171257231588E+03   -0.12954E-01   -0.12955E-01  1440   0.101E-01 0.343E-06
CGA:   4    -0.171259968587E+03   -0.27370E-02   -0.27369E-02  1440   0.183E-02 0.425E-06
CGA:   5    -0.171260540619E+03   -0.57203E-03   -0.57200E-03  1440   0.448E-03-0.180E-05
CGA:   6    -0.171260702453E+03   -0.16183E-03   -0.16182E-03  1440   0.135E-03 0.502E-06
CGA:   7    -0.171260755327E+03   -0.52873E-04   -0.52909E-04  1440   0.400E-04-0.587E-06
CGA:   8    -0.171260769562E+03   -0.14236E-04   -0.14238E-04  1440   0.963E-05-0.805E-07
CGA:   9    -0.171260773090E+03   -0.35273E-05   -0.35348E-05  1440   0.210E-05-0.234E-06
  42 F= -.17126077E+03 E0= -.17126077E+03  d E =-.671672E-02
       N       E                     dE             d eps       ncg     rms          ort
SDA:   1    -0.171258129293E+03    0.26403E-02    0.00000E+00  1440   0.139E-01 0.000E+00
CGA:   2    -0.171262207341E+03   -0.40780E-02   -0.40781E-02  1440   0.220E-02 0.196E-05
CGA:   3    -0.171262896162E+03   -0.68882E-03   -0.68872E-03  1440   0.479E-03-0.401E-05
CGA:   4    -0.171263028169E+03   -0.13201E-03   -0.13194E-03  1440   0.104E-03-0.106E-05
CGA:   5    -0.171263060733E+03   -0.32564E-04   -0.32539E-04  1440   0.282E-04-0.121E-05
CGA:   6    -0.171263070977E+03   -0.10244E-04   -0.10263E-04  1440   0.895E-05-0.524E-06
CGA:   7    -0.171263074348E+03   -0.33710E-05   -0.33906E-05  1440   0.250E-05-0.381E-06
CGA:   8    -0.171263075187E+03   -0.83848E-06   -0.83863E-06  1440   0.538E-06 0.299E-08
  43 F= -.17126308E+03 E0= -.17126308E+03  d E =-.230210E-02
       N       E                     dE             d eps       ncg     rms          ort
SDA:   1    -0.171223594633E+03    0.39480E-01    0.00000E+00  1440   0.125E+00 0.000E+00
CGA:   2    -0.171260315846E+03   -0.36721E-01   -0.36720E-01  1440   0.198E-01-0.129E-05
CGA:   3    -0.171266514207E+03   -0.61984E-02   -0.61982E-02  1440   0.428E-02-0.108E-04
CGA:   4    -0.171267699331E+03   -0.11851E-02   -0.11849E-02  1440   0.924E-03-0.335E-05
CGA:   5    -0.171267989424E+03   -0.29009E-03   -0.29003E-03  1440   0.246E-03-0.334E-05
CGA:   6    -0.171268079518E+03   -0.90094E-04   -0.90146E-04  1440   0.773E-04-0.149E-05
CGA:   7    -0.171268108504E+03   -0.28986E-04   -0.29035E-04  1440   0.209E-04-0.109E-05
CGA:   8    -0.171268115880E+03   -0.73760E-05   -0.73766E-05  1440   0.469E-05-0.146E-07
CGA:   9    -0.171268117564E+03   -0.16837E-05   -0.16856E-05  1440   0.106E-05-0.740E-07
  44 F= -.17126812E+03 E0= -.17126812E+03  d E =-.734447E-02
       N       E                     dE             d eps       ncg     rms          ort
SDA:   1    -0.171092072675E+03    0.17604E+00    0.00000E+00  1440   0.499E+00 0.000E+00
CGA:   2    -0.171238683079E+03   -0.14661E+00   -0.14660E+00  1440   0.791E-01-0.583E-04
CGA:   3    -0.171263436625E+03   -0.24754E-01   -0.24754E-01  1440   0.172E-01-0.128E-04
CGA:   4    -0.171268191227E+03   -0.47546E-02   -0.47539E-02  1440   0.372E-02-0.754E-05
CGA:   5    -0.171269355709E+03   -0.11645E-02   -0.11644E-02  1440   0.986E-03-0.606E-05
CGA:   6    -0.171269716297E+03   -0.36059E-03   -0.36068E-03  1440   0.308E-03-0.272E-05
CGA:   7    -0.171269831964E+03   -0.11567E-03   -0.11576E-03  1440   0.831E-04-0.219E-05
CGA:   8    -0.171269861581E+03   -0.29617E-04   -0.29619E-04  1440   0.189E-04-0.670E-07
CGA:   9    -0.171269868333E+03   -0.67523E-05   -0.67561E-05  1440   0.422E-05-0.181E-06
CGA:  10    -0.171269869946E+03   -0.16125E-05   -0.16158E-05  1440   0.988E-06-0.653E-07
  45 F= -.17126987E+03 E0= -.17126987E+03  d E =-.909686E-02
       N       E                     dE             d eps       ncg     rms          ort
SDA:   1    -0.171249912018E+03    0.19956E-01    0.00000E+00  1440   0.579E-01 0.000E+00
CGA:   2    -0.171266919015E+03   -0.17007E-01   -0.17008E-01  1440   0.915E-02 0.803E-06
CGA:   3    -0.171269785144E+03   -0.28661E-02   -0.28663E-02  1440   0.198E-02 0.753E-05
CGA:   4    -0.171270333829E+03   -0.54868E-03   -0.54885E-03  1440   0.429E-03 0.241E-05
CGA:   5    -0.171270467311E+03   -0.13348E-03   -0.13355E-03  1440   0.113E-03 0.264E-05
CGA:   6    -0.171270508590E+03   -0.41279E-04   -0.41249E-04  1440   0.349E-04 0.115E-05
CGA:   7    -0.171270521637E+03   -0.13047E-04   -0.13024E-04  1440   0.916E-05 0.729E-06
CGA:   8    -0.171270525043E+03   -0.34060E-05   -0.34057E-05  1440   0.219E-05 0.218E-07
  46 F= -.17127053E+03 E0= -.17127053E+03  d E =-.975195E-02
       N       E                     dE             d eps       ncg     rms          ort
SDA:   1    -0.171251308062E+03    0.19214E-01    0.00000E+00  1440   0.675E-01 0.000E+00
CGA:   2    -0.171271114158E+03   -0.19806E-01   -0.19805E-01  1440   0.104E-01-0.534E-05
CGA:   3    -0.171274272259E+03   -0.31581E-02   -0.31577E-02  1440   0.237E-02-0.119E-04
CGA:   4    -0.171274917652E+03   -0.64539E-03   -0.64501E-03  1440   0.498E-03-0.574E-05
CGA:   5    -0.171275080812E+03   -0.16316E-03   -0.16314E-03  1440   0.132E-03-0.476E-05
CGA:   6    -0.171275129474E+03   -0.48662E-04   -0.48736E-04  1440   0.423E-04-0.187E-05
CGA:   7    -0.171275144861E+03   -0.15387E-04   -0.15425E-04  1440   0.112E-04-0.108E-05
CGA:   8    -0.171275148756E+03   -0.38952E-05   -0.38955E-05  1440   0.247E-05-0.630E-08
  47 F= -.17127515E+03 E0= -.17127515E+03  d E =-.462371E-02
       N       E                     dE             d eps       ncg     rms          ort
SDA:   1    -0.171070093704E+03    0.20505E+00    0.00000E+00  1440   0.607E+00 0.000E+00
CGA:   2    -0.171248087576E+03   -0.17799E+00   -0.17797E+00  1440   0.937E-01-0.135E-03
CGA:   3    -0.171276435368E+03   -0.28348E-01   -0.28348E-01  1440   0.213E-01-0.207E-04
CGA:   4    -0.171282248314E+03   -0.58129E-02   -0.58115E-02  1440   0.444E-02-0.191E-04
CGA:   5    -0.171283703328E+03   -0.14550E-02   -0.14550E-02  1440   0.118E-02-0.132E-04
CGA:   6    -0.171284138009E+03   -0.43468E-03   -0.43489E-03  1440   0.376E-03-0.526E-05
CGA:   7    -0.171284274948E+03   -0.13694E-03   -0.13705E-03  1440   0.982E-04-0.328E-05
CGA:   8    -0.171284310024E+03   -0.35076E-04   -0.35079E-04  1440   0.222E-04-0.102E-06
CGA:   9    -0.171284318053E+03   -0.80289E-05   -0.80311E-05  1440   0.502E-05-0.778E-07
CGA:  10    -0.171284319973E+03   -0.19193E-05   -0.19205E-05  1440   0.117E-05-0.211E-07
  48 F= -.17128432E+03 E0= -.17128432E+03  d E =-.137949E-01
       N       E                     dE             d eps       ncg     rms          ort
SDA:   1    -0.170425794961E+03    0.85852E+00    0.00000E+00  1440   0.242E+01 0.000E+00
CGA:   2    -0.171135422036E+03   -0.70963E+00   -0.70946E+00  1440   0.377E+00-0.107E-02
CGA:   3    -0.171248668728E+03   -0.11325E+00   -0.11326E+00  1440   0.860E-01 0.729E-04
CGA:   4    -0.171272196119E+03   -0.23527E-01   -0.23522E-01  1440   0.178E-01-0.489E-04
CGA:   5    -0.171278055077E+03   -0.58590E-02   -0.58588E-02  1440   0.470E-02-0.227E-04
CGA:   6    -0.171279794244E+03   -0.17392E-02   -0.17395E-02  1440   0.150E-02-0.907E-05
CGA:   7    -0.171280341590E+03   -0.54735E-03   -0.54754E-03  1440   0.390E-03-0.652E-05
CGA:   8    -0.171280481864E+03   -0.14027E-03   -0.14028E-03  1440   0.887E-04-0.356E-06
CGA:   9    -0.171280514008E+03   -0.32144E-04   -0.32152E-04  1440   0.200E-04-0.327E-06
CGA:  10    -0.171280521722E+03   -0.77133E-05   -0.77218E-05  1440   0.468E-05-0.181E-06
CGA:  11    -0.171280523651E+03   -0.19292E-05   -0.19263E-05  1440   0.105E-05 0.429E-07
  49 F= -.17128052E+03 E0= -.17128052E+03  d E =-.999861E-02
       N       E                     dE             d eps       ncg     rms          ort
SDA:   1    -0.170944933257E+03    0.33559E+00    0.00000E+00  1440   0.967E+00 0.000E+00
CGA:   2    -0.171228600103E+03   -0.28367E+00   -0.28373E+00  1440   0.149E+00 0.296E-03
CGA:   3    -0.171273850172E+03   -0.45250E-01   -0.45248E-01  1440   0.341E-01 0.147E-04
CGA:   4    -0.171283143141E+03   -0.92930E-02   -0.92958E-02  1440   0.708E-02 0.269E-04
CGA:   5    -0.171285457234E+03   -0.23141E-02   -0.23144E-02  1440   0.186E-02 0.207E-04
CGA:   6    -0.171286146333E+03   -0.68910E-03   -0.68887E-03  1440   0.590E-03 0.835E-05
CGA:   7    -0.171286362886E+03   -0.21655E-03   -0.21646E-03  1440   0.153E-03 0.410E-05
CGA:   8    -0.171286418716E+03   -0.55830E-04   -0.55830E-04  1440   0.357E-04 0.187E-07
CGA:   9    -0.171286431588E+03   -0.12872E-04   -0.12874E-04  1440   0.802E-05-0.124E-06
CGA:  10    -0.171286434697E+03   -0.31090E-05   -0.31162E-05  1440   0.189E-05-0.159E-06
  50 F= -.17128643E+03 E0= -.17128643E+03  d E =-.159097E-01
       N       E                     dE             d eps       ncg     rms          ort
SDA:   1    -0.171185337518E+03    0.10109E+00    0.00000E+00  1440   0.281E+00 0.000E+00
CGA:   2    -0.171272839910E+03   -0.87502E-01   -0.87499E-01  1440   0.489E-01-0.342E-04
CGA:   3    -0.171287783351E+03   -0.14943E-01   -0.14943E-01  1440   0.104E-01-0.143E-04
CGA:   4    -0.171290576412E+03   -0.27931E-02   -0.27921E-02  1440   0.202E-02-0.104E-04
CGA:   5    -0.171291220794E+03   -0.64438E-03   -0.64423E-03  1440   0.490E-03-0.631E-05
CGA:   6    -0.171291404281E+03   -0.18349E-03   -0.18358E-03  1440   0.154E-03-0.279E-05
CGA:   7    -0.171291462364E+03   -0.58083E-04   -0.58151E-04  1440   0.423E-04-0.195E-05
CGA:   8    -0.171291477571E+03   -0.15207E-04   -0.15210E-04  1440   0.952E-05-0.173E-06
CGA:   9    -0.171291481002E+03   -0.34315E-05   -0.34335E-05  1440   0.218E-05-0.121E-06
  51 F= -.17129148E+03 E0= -.17129148E+03  d E =-.504631E-02
       N       E                     dE             d eps       ncg     rms          ort
SDA:   1    -0.171291367649E+03    0.10992E-03    0.00000E+00  1440   0.319E-03 0.000E+00
CGA:   2    -0.171291466733E+03   -0.99084E-04   -0.99072E-04  1440   0.563E-04-0.328E-06
CGA:   3    -0.171291483886E+03   -0.17153E-04   -0.17126E-04  1440   0.126E-04-0.654E-06
CGA:   4    -0.171291487241E+03   -0.33555E-05   -0.33315E-05  1440   0.254E-05-0.315E-06
CGA:   5    -0.171291488068E+03   -0.82704E-06   -0.82534E-06  1440   0.746E-06-0.274E-06
CGA:   6    -0.171291488335E+03   -0.26669E-06   -0.27637E-06  1440   0.295E-06-0.126E-06
CGA:   7    -0.171291488438E+03   -0.10326E-06   -0.11665E-06  1440   0.140E-06-0.992E-07
CGA:   8    -0.171291488466E+03   -0.27410E-07   -0.27642E-07  1440   0.306E-07 0.130E-08
  52 F= -.17129149E+03 E0= -.17129149E+03  d E =-.505377E-02
       N       E                     dE             d eps       ncg     rms          ort
SDA:   1    -0.171281409526E+03    0.10079E-01    0.00000E+00  1440   0.306E-01 0.000E+00
CGA:   2    -0.171290917116E+03   -0.95076E-02   -0.95076E-02  1440   0.690E-02-0.247E-05
CGA:   3    -0.171292766743E+03   -0.18496E-02   -0.18497E-02  1440   0.146E-02 0.175E-05
CGA:   4    -0.171293158614E+03   -0.39187E-03   -0.39193E-03  1440   0.244E-03 0.757E-06
CGA:   5    -0.171293237425E+03   -0.78810E-04   -0.78819E-04  1440   0.549E-04 0.748E-06
CGA:   6    -0.171293257652E+03   -0.20227E-04   -0.20237E-04  1440   0.164E-04-0.269E-06
CGA:   7    -0.171293263900E+03   -0.62478E-05   -0.62511E-05  1440   0.459E-05-0.625E-07
CGA:   8    -0.171293265588E+03   -0.16882E-05   -0.16898E-05  1440   0.113E-05-0.429E-07
  53 F= -.17129327E+03 E0= -.17129327E+03  d E =-.177712E-02
       N       E                     dE             d eps       ncg     rms          ort
SDA:   1    -0.171230950797E+03    0.62313E-01    0.00000E+00  1440   0.165E+00 0.000E+00
CGA:   2    -0.171282262676E+03   -0.51312E-01   -0.51313E-01  1440   0.372E-01 0.901E-05
CGA:   3    -0.171292238475E+03   -0.99758E-02   -0.99754E-02  1440   0.786E-02 0.220E-05
CGA:   4    -0.171294350786E+03   -0.21123E-02   -0.21125E-02  1440   0.132E-02 0.205E-05
CGA:   5    -0.171294776568E+03   -0.42578E-03   -0.42580E-03  1440   0.298E-03 0.188E-05
CGA:   6    -0.171294885744E+03   -0.10918E-03   -0.10919E-03  1440   0.882E-04-0.525E-06
CGA:   7    -0.171294919533E+03   -0.33790E-04   -0.33796E-04  1440   0.247E-04-0.115E-06
CGA:   8    -0.171294928644E+03   -0.91107E-05   -0.91142E-05  1440   0.604E-05-0.982E-07
CGA:   9    -0.171294930782E+03   -0.21377E-05   -0.21378E-05  1440   0.137E-05 0.684E-08
  54 F= -.17129493E+03 E0= -.17129493E+03  d E =-.344232E-02
       N       E                     dE             d eps       ncg     rms          ort
SDA:   1    -0.171293404430E+03    0.15242E-02    0.00000E+00  1440   0.591E-02 0.000E+00
CGA:   2    -0.171295314521E+03   -0.19101E-02   -0.19101E-02  1440   0.127E-02-0.128E-05
CGA:   3    -0.171295668891E+03   -0.35437E-03   -0.35450E-03  1440   0.251E-03 0.216E-05
CGA:   4    -0.171295734640E+03   -0.65749E-04   -0.65820E-04  1440   0.439E-04 0.955E-06
CGA:   5    -0.171295748240E+03   -0.13600E-04   -0.13611E-04  1440   0.981E-05 0.493E-06
CGA:   6    -0.171295751905E+03   -0.36654E-05   -0.36623E-05  1440   0.289E-05 0.880E-07
CGA:   7    -0.171295753024E+03   -0.11183E-05   -0.11138E-05  1440   0.755E-06 0.955E-07
CGA:   8    -0.171295753321E+03   -0.29772E-06   -0.29777E-06  1440   0.182E-06 0.336E-08
  55 F= -.17129575E+03 E0= -.17129575E+03  d E =-.822539E-03
       N       E                     dE             d eps       ncg     rms          ort
SDA:   1    -0.171276709400E+03    0.19044E-01    0.00000E+00  1440   0.533E-01 0.000E+00
CGA:   2    -0.171293908311E+03   -0.17199E-01   -0.17199E-01  1440   0.114E-01 0.756E-08
CGA:   3    -0.171297103332E+03   -0.31950E-02   -0.31953E-02  1440   0.226E-02 0.617E-05
CGA:   4    -0.171297696400E+03   -0.59307E-03   -0.59329E-03  1440   0.396E-03 0.291E-05
CGA:   5    -0.171297819929E+03   -0.12353E-03   -0.12356E-03  1440   0.889E-04 0.151E-05
CGA:   6    -0.171297852764E+03   -0.32836E-04   -0.32825E-04  1440   0.259E-04 0.305E-06
CGA:   7    -0.171297862853E+03   -0.10088E-04   -0.10072E-04  1440   0.688E-05 0.293E-06
CGA:   8    -0.171297865485E+03   -0.26324E-05   -0.26323E-05  1440   0.159E-05 0.697E-08
  56 F= -.17129787E+03 E0= -.17129787E+03  d E =-.293470E-02
       N       E                     dE             d eps       ncg     rms          ort
SDA:   1    -0.171215815460E+03    0.82047E-01    0.00000E+00  1440   0.213E+00 0.000E+00
CGA:   2    -0.171284611082E+03   -0.68796E-01   -0.68796E-01  1440   0.455E-01 0.230E-04
CGA:   3    -0.171297390525E+03   -0.12779E-01   -0.12780E-01  1440   0.902E-02 0.106E-04
CGA:   4    -0.171299758490E+03   -0.23680E-02   -0.23685E-02  1440   0.158E-02 0.619E-05
CGA:   5    -0.171300251792E+03   -0.49330E-03   -0.49336E-03  1440   0.356E-03 0.312E-05
CGA:   6    -0.171300382996E+03   -0.13120E-03   -0.13118E-03  1440   0.103E-03 0.744E-06
CGA:   7    -0.171300423469E+03   -0.40473E-04   -0.40437E-04  1440   0.277E-04 0.629E-06
CGA:   8    -0.171300433993E+03   -0.10525E-04   -0.10524E-04  1440   0.635E-05 0.146E-07
CGA:   9    -0.171300436349E+03   -0.23563E-05   -0.23565E-05  1440   0.142E-05-0.224E-09
  57 F= -.17130044E+03 E0= -.17130044E+03  d E =-.550557E-02
       N       E                     dE             d eps       ncg     rms          ort
SDA:   1    -0.170960588313E+03    0.33985E+00    0.00000E+00  1440   0.852E+00 0.000E+00
CGA:   2    -0.171235771914E+03   -0.27518E+00   -0.27519E+00  1440   0.182E+00 0.214E-03
CGA:   3    -0.171286890756E+03   -0.51119E-01   -0.51116E-01  1440   0.359E-01 0.109E-04
CGA:   4    -0.171296329071E+03   -0.94383E-02   -0.94402E-02  1440   0.632E-02 0.155E-04
CGA:   5    -0.171298296497E+03   -0.19674E-02   -0.19676E-02  1440   0.142E-02 0.675E-05
CGA:   6    -0.171298819006E+03   -0.52251E-03   -0.52244E-03  1440   0.412E-03 0.202E-05
CGA:   7    -0.171298980326E+03   -0.16132E-03   -0.16124E-03  1440   0.111E-03 0.143E-05
CGA:   8    -0.171299022227E+03   -0.41901E-04   -0.41900E-04  1440   0.252E-04 0.346E-07
CGA:   9    -0.171299031601E+03   -0.93742E-05   -0.93754E-05  1440   0.563E-05-0.339E-07
CGA:  10    -0.171299033778E+03   -0.21767E-05   -0.21827E-05  1440   0.145E-05-0.123E-06
  58 F= -.17129903E+03 E0= -.17129903E+03  d E =-.410300E-02
       N       E                     dE             d eps       ncg     rms          ort
SDA:   1    -0.171153923998E+03    0.14511E+00    0.00000E+00  1440   0.370E+00 0.000E+00
CGA:   2    -0.171273391356E+03   -0.11947E+00   -0.11947E+00  1440   0.792E-01-0.445E-04
CGA:   3    -0.171295593219E+03   -0.22202E-01   -0.22203E-01  1440   0.158E-01-0.121E-04
CGA:   4    -0.171299747706E+03   -0.41545E-02   -0.41535E-02  1440   0.279E-02-0.912E-05
CGA:   5    -0.171300620841E+03   -0.87313E-03   -0.87305E-03  1440   0.632E-03-0.342E-05
CGA:   6    -0.171300853276E+03   -0.23243E-03   -0.23244E-03  1440   0.184E-03-0.124E-06
CGA:   7    -0.171300925084E+03   -0.71808E-04   -0.71837E-04  1440   0.495E-04-0.541E-06
CGA:   8    -0.171300943550E+03   -0.18466E-04   -0.18467E-04  1440   0.112E-04 0.308E-08
CGA:   9    -0.171300947702E+03   -0.41517E-05   -0.41531E-05  1440   0.252E-05-0.410E-07
  59 F= -.17130095E+03 E0= -.17130095E+03  d E =-.601692E-02
       N       E                     dE             d eps       ncg     rms          ort
SDA:   1    -0.171294189580E+03    0.67540E-02    0.00000E+00  1440   0.205E-01 0.000E+00
CGA:   2    -0.171300816384E+03   -0.66268E-02   -0.66268E-02  1440   0.437E-02-0.193E-05
CGA:   3    -0.171302028140E+03   -0.12118E-02   -0.12123E-02  1440   0.851E-03 0.889E-05
CGA:   4    -0.171302249503E+03   -0.22136E-03   -0.22163E-03  1440   0.145E-03 0.322E-05
CGA:   5    -0.171302295514E+03   -0.46011E-04   -0.46037E-04  1440   0.322E-04 0.123E-05
CGA:   6    -0.171302307240E+03   -0.11726E-04   -0.11705E-04  1440   0.892E-05 0.882E-06
CGA:   7    -0.171302310667E+03   -0.34267E-05   -0.34074E-05  1440   0.224E-05 0.557E-06
CGA:   8    -0.171302311573E+03   -0.90654E-06   -0.90371E-06  1440   0.523E-06 0.756E-07
  60 F= -.17130231E+03 E0= -.17130231E+03  d E =-.136387E-02
       N       E                     dE             d eps       ncg     rms          ort
SDA:   1    -0.171231538260E+03    0.70772E-01    0.00000E+00  1440   0.184E+00 0.000E+00
CGA:   2    -0.171291125001E+03   -0.59587E-01   -0.59588E-01  1440   0.393E-01 0.253E-04
CGA:   3    -0.171302042301E+03   -0.10917E-01   -0.10918E-01  1440   0.766E-02 0.242E-04
CGA:   4    -0.171304037144E+03   -0.19948E-02   -0.19957E-02  1440   0.131E-02 0.987E-05
CGA:   5    -0.171304452246E+03   -0.41510E-03   -0.41517E-03  1440   0.294E-03 0.384E-05
CGA:   6    -0.171304560366E+03   -0.10812E-03   -0.10803E-03  1440   0.837E-04 0.287E-05
CGA:   7    -0.171304592863E+03   -0.32497E-04   -0.32409E-04  1440   0.217E-04 0.180E-05
CGA:   8    -0.171304601258E+03   -0.83955E-05   -0.83879E-05  1440   0.487E-05 0.189E-06
CGA:   9    -0.171304603141E+03   -0.18823E-05   -0.18800E-05  1440   0.108E-05 0.576E-07
  61 F= -.17130460E+03 E0= -.17130460E+03  d E =-.365544E-02
       N       E                     dE             d eps       ncg     rms          ort
SDA:   1    -0.171296002830E+03    0.85984E-02    0.00000E+00  1440   0.221E-01 0.000E+00
CGA:   2    -0.171303152550E+03   -0.71497E-02   -0.71497E-02  1440   0.473E-02-0.188E-05
CGA:   3    -0.171304460854E+03   -0.13083E-02   -0.13089E-02  1440   0.920E-03 0.932E-05
CGA:   4    -0.171304699941E+03   -0.23909E-03   -0.23936E-03  1440   0.158E-03 0.335E-05
CGA:   5    -0.171304749607E+03   -0.49666E-04   -0.49694E-04  1440   0.351E-04 0.131E-05
CGA:   6    -0.171304762447E+03   -0.12840E-04   -0.12814E-04  1440   0.985E-05 0.939E-06
CGA:   7    -0.171304766243E+03   -0.37966E-05   -0.37738E-05  1440   0.250E-05 0.608E-06
CGA:   8    -0.171304767252E+03   -0.10085E-05   -0.10053E-05  1440   0.588E-06 0.845E-07
  62 F= -.17130477E+03 E0= -.17130477E+03  d E =-.381955E-02
       N       E                     dE             d eps       ncg     rms          ort
SDA:   1    -0.171278597205E+03    0.26169E-01    0.00000E+00  1440   0.708E-01 0.000E+00
CGA:   2    -0.171301297148E+03   -0.22700E-01   -0.22700E-01  1440   0.169E-01 0.338E-05
CGA:   3    -0.171305784890E+03   -0.44877E-02   -0.44884E-02  1440   0.329E-02 0.135E-04
CGA:   4    -0.171306650100E+03   -0.86521E-03   -0.86577E-03  1440   0.531E-03 0.735E-05
CGA:   5    -0.171306820882E+03   -0.17078E-03   -0.17082E-03  1440   0.119E-03 0.321E-05
CGA:   6    -0.171306863892E+03   -0.43010E-04   -0.42980E-04  1440   0.348E-04 0.108E-05
CGA:   7    -0.171306877069E+03   -0.13177E-04   -0.13135E-04  1440   0.918E-05 0.104E-05
CGA:   8    -0.171306880570E+03   -0.35008E-05   -0.34953E-05  1440   0.216E-05 0.167E-06
  63 F= -.17130688E+03 E0= -.17130688E+03  d E =-.211332E-02
       N       E                     dE             d eps       ncg     rms          ort
SDA:   1    -0.171055984690E+03    0.25089E+00    0.00000E+00  1440   0.637E+00 0.000E+00
CGA:   2    -0.171260305783E+03   -0.20432E+00   -0.20433E+00  1440   0.152E+00 0.266E-03
CGA:   3    -0.171300671151E+03   -0.40365E-01   -0.40359E-01  1440   0.296E-01 0.196E-04
CGA:   4    -0.171308434680E+03   -0.77635E-02   -0.77659E-02  1440   0.479E-02 0.255E-04
CGA:   5    -0.171309973666E+03   -0.15390E-02   -0.15391E-02  1440   0.107E-02 0.101E-04
CGA:   6    -0.171310361253E+03   -0.38759E-03   -0.38747E-03  1440   0.314E-03 0.380E-05
CGA:   7    -0.171310481185E+03   -0.11993E-03   -0.11977E-03  1440   0.845E-04 0.337E-05
CGA:   8    -0.171310512781E+03   -0.31596E-04   -0.31580E-04  1440   0.196E-04 0.463E-06
CGA:   9    -0.171310520037E+03   -0.72558E-05   -0.72526E-05  1440   0.436E-05 0.103E-06
CGA:  10    -0.171310521708E+03   -0.16708E-05   -0.16693E-05  1440   0.102E-05 0.380E-07
  64 F= -.17131052E+03 E0= -.17131052E+03  d E =-.575446E-02
       N       E                     dE             d eps       ncg     rms          ort
SDA:   1    -0.171266340981E+03    0.44179E-01    0.00000E+00  1440   0.115E+00 0.000E+00
CGA:   2    -0.171304105941E+03   -0.37765E-01   -0.37765E-01  1440   0.283E-01 0.109E-04
CGA:   3    -0.171311539173E+03   -0.74332E-02   -0.74339E-02  1440   0.543E-02 0.143E-04
CGA:   4    -0.171312993187E+03   -0.14540E-02   -0.14547E-02  1440   0.888E-03 0.946E-05
CGA:   5    -0.171313281330E+03   -0.28814E-03   -0.28819E-03  1440   0.200E-03 0.416E-05
CGA:   6    -0.171313354916E+03   -0.73587E-04   -0.73552E-04  1440   0.589E-04 0.107E-05
CGA:   7    -0.171313377604E+03   -0.22687E-04   -0.22640E-04  1440   0.156E-04 0.102E-05
CGA:   8    -0.171313383534E+03   -0.59302E-05   -0.59250E-05  1440   0.361E-05 0.152E-06
CGA:   9    -0.171313384901E+03   -0.13669E-05   -0.13666E-05  1440   0.793E-06 0.158E-07
  65 F= -.17131338E+03 E0= -.17131338E+03  d E =-.286319E-02
       N       E                     dE             d eps       ncg     rms          ort
SDA:   1    -0.171254442769E+03    0.58941E-01    0.00000E+00  1440   0.146E+00 0.000E+00
CGA:   2    -0.171302656406E+03   -0.48214E-01   -0.48214E-01  1440   0.361E-01 0.177E-04
CGA:   3    -0.171312146835E+03   -0.94904E-02   -0.94910E-02  1440   0.694E-02 0.159E-04
CGA:   4    -0.171314004034E+03   -0.18572E-02   -0.18580E-02  1440   0.114E-02 0.107E-04
CGA:   5    -0.171314372026E+03   -0.36799E-03   -0.36805E-03  1440   0.256E-03 0.470E-05
CGA:   6    -0.171314466272E+03   -0.94246E-04   -0.94208E-04  1440   0.755E-04 0.122E-05
CGA:   7    -0.171314495355E+03   -0.29083E-04   -0.29029E-04  1440   0.200E-04 0.116E-05
CGA:   8    -0.171314502951E+03   -0.75953E-05   -0.75897E-05  1440   0.464E-05 0.165E-06
CGA:   9    -0.171314504702E+03   -0.17517E-05   -0.17515E-05  1440   0.102E-05 0.129E-07
  66 F= -.17131450E+03 E0= -.17131450E+03  d E =-.398299E-02
       N       E                     dE             d eps       ncg     rms          ort
SDA:   1    -0.171270534701E+03    0.43968E-01    0.00000E+00  1440   0.112E+00 0.000E+00
CGA:   2    -0.171307037888E+03   -0.36503E-01   -0.36504E-01  1440   0.271E-01 0.978E-05
CGA:   3    -0.171314159293E+03   -0.71214E-02   -0.71217E-02  1440   0.517E-02 0.117E-04
CGA:   4    -0.171315523257E+03   -0.13640E-02   -0.13646E-02  1440   0.834E-03 0.722E-05
CGA:   5    -0.171315791270E+03   -0.26801E-03   -0.26806E-03  1440   0.184E-03 0.324E-05
CGA:   6    -0.171315858099E+03   -0.66829E-04   -0.66811E-04  1440   0.536E-04 0.673E-06
CGA:   7    -0.171315878559E+03   -0.20460E-04   -0.20423E-04  1440   0.142E-04 0.863E-06
CGA:   8    -0.171315883928E+03   -0.53691E-05   -0.53649E-05  1440   0.333E-05 0.137E-06
CGA:   9    -0.171315885172E+03   -0.12444E-05   -0.12434E-05  1440   0.729E-06 0.442E-07
  67 F= -.17131589E+03 E0= -.17131589E+03  d E =-.138047E-02
       N       E                     dE             d eps       ncg     rms          ort
SDA:   1    -0.171276555724E+03    0.39328E-01    0.00000E+00  1440   0.979E-01 0.000E+00
CGA:   2    -0.171308554716E+03   -0.31999E-01   -0.31999E-01  1440   0.237E-01 0.680E-05
CGA:   3    -0.171314792186E+03   -0.62375E-02   -0.62378E-02  1440   0.454E-02 0.112E-04
CGA:   4    -0.171315987455E+03   -0.11953E-02   -0.11958E-02  1440   0.731E-03 0.674E-05
CGA:   5    -0.171316222429E+03   -0.23497E-03   -0.23502E-03  1440   0.161E-03 0.303E-05
CGA:   6    -0.171316281076E+03   -0.58647E-04   -0.58630E-04  1440   0.471E-04 0.628E-06
CGA:   7    -0.171316299025E+03   -0.17949E-04   -0.17915E-04  1440   0.125E-04 0.807E-06
CGA:   8    -0.171316303737E+03   -0.47121E-05   -0.47081E-05  1440   0.292E-05 0.129E-06
  68 F= -.17131630E+03 E0= -.17131630E+03  d E =-.179904E-02
       N       E                     dE             d eps       ncg     rms          ort
SDA:   1    -0.171259053382E+03    0.57246E-01    0.00000E+00  1440   0.148E+00 0.000E+00
CGA:   2    -0.171306687012E+03   -0.47634E-01   -0.47635E-01  1440   0.347E-01 0.155E-04
CGA:   3    -0.171316127795E+03   -0.94408E-02   -0.94407E-02  1440   0.654E-02 0.982E-05
CGA:   4    -0.171317823806E+03   -0.16960E-02   -0.16965E-02  1440   0.109E-02 0.545E-05
CGA:   5    -0.171318170408E+03   -0.34660E-03   -0.34664E-03  1440   0.237E-03 0.214E-05
CGA:   6    -0.171318256756E+03   -0.86348E-04   -0.86326E-04  1440   0.679E-04 0.679E-06
CGA:   7    -0.171318283129E+03   -0.26373E-04   -0.26324E-04  1440   0.183E-04 0.935E-06
CGA:   8    -0.171318290025E+03   -0.68961E-05   -0.68918E-05  1440   0.423E-05 0.131E-06
CGA:   9    -0.171318291617E+03   -0.15923E-05   -0.15901E-05  1440   0.929E-06 0.717E-07
  69 F= -.17131829E+03 E0= -.17131829E+03  d E =-.198788E-02
       N       E                     dE             d eps       ncg     rms          ort
SDA:   1    -0.171263219649E+03    0.55070E-01    0.00000E+00  1440   0.140E+00 0.000E+00
CGA:   2    -0.171308019540E+03   -0.44800E-01   -0.44801E-01  1440   0.326E-01 0.132E-04
CGA:   3    -0.171316903219E+03   -0.88837E-02   -0.88836E-02  1440   0.617E-02 0.986E-05
CGA:   4    -0.171318500700E+03   -0.15975E-02   -0.15980E-02  1440   0.103E-02 0.524E-05
CGA:   5    -0.171318827865E+03   -0.32717E-03   -0.32720E-03  1440   0.223E-03 0.208E-05
CGA:   6    -0.171318909169E+03   -0.81303E-04   -0.81283E-04  1440   0.640E-04 0.651E-06
CGA:   7    -0.171318933993E+03   -0.24824E-04   -0.24777E-04  1440   0.173E-04 0.909E-06
CGA:   8    -0.171318940489E+03   -0.64963E-05   -0.64921E-05  1440   0.400E-05 0.128E-06
CGA:   9    -0.171318941992E+03   -0.15032E-05   -0.15011E-05  1440   0.878E-06 0.696E-07
  70 F= -.17131894E+03 E0= -.17131894E+03  d E =-.263825E-02
       N       E                     dE             d eps       ncg     rms          ort
SDA:   1    -0.171251741679E+03    0.67199E-01    0.00000E+00  1440   0.171E+00 0.000E+00
CGA:   2    -0.171307840409E+03   -0.56099E-01   -0.56099E-01  1440   0.388E-01 0.660E-05
CGA:   3    -0.171318423497E+03   -0.10583E-01   -0.10584E-01  1440   0.741E-02 0.119E-04
CGA:   4    -0.171320352090E+03   -0.19286E-02   -0.19291E-02  1440   0.124E-02 0.673E-05
CGA:   5    -0.171320748063E+03   -0.39597E-03   -0.39601E-03  1440   0.267E-03 0.231E-05
CGA:   6    -0.171320845330E+03   -0.97267E-04   -0.97234E-04  1440   0.746E-04 0.113E-05
CGA:   7    -0.171320874684E+03   -0.29354E-04   -0.29300E-04  1440   0.195E-04 0.965E-06
CGA:   8    -0.171320882242E+03   -0.75582E-05   -0.75497E-05  1440   0.438E-05 0.192E-06
CGA:   9    -0.171320883985E+03   -0.17428E-05   -0.17439E-05  1440   0.939E-06-0.172E-07
  71 F= -.17132088E+03 E0= -.17132088E+03  d E =-.194199E-02
       N       E                     dE             d eps       ncg     rms          ort
SDA:   1    -0.171294078479E+03    0.26804E-01    0.00000E+00  1440   0.672E-01 0.000E+00
CGA:   2    -0.171316104197E+03   -0.22026E-01   -0.22026E-01  1440   0.152E-01-0.664E-06
CGA:   3    -0.171320259276E+03   -0.41551E-02   -0.41556E-02  1440   0.291E-02 0.766E-05
CGA:   4    -0.171321016334E+03   -0.75706E-03   -0.75740E-03  1440   0.488E-03 0.415E-05
CGA:   5    -0.171321171940E+03   -0.15561E-03   -0.15563E-03  1440   0.105E-03 0.140E-05
CGA:   6    -0.171321210183E+03   -0.38243E-04   -0.38226E-04  1440   0.293E-04 0.663E-06
CGA:   7    -0.171321221693E+03   -0.11510E-04   -0.11480E-04  1440   0.759E-05 0.582E-06
CGA:   8    -0.171321224660E+03   -0.29677E-05   -0.29629E-05  1440   0.171E-05 0.119E-06
  72 F= -.17132122E+03 E0= -.17132122E+03  d E =-.228267E-02
       N       E                     dE             d eps       ncg     rms          ort
SDA:   1    -0.171278966662E+03    0.42255E-01    0.00000E+00  1440   0.110E+00 0.000E+00
CGA:   2    -0.171314964447E+03   -0.35998E-01   -0.35998E-01  1440   0.237E-01 0.207E-05
CGA:   3    -0.171321645523E+03   -0.66811E-02   -0.66814E-02  1440   0.441E-02 0.645E-05
CGA:   4    -0.171322807942E+03   -0.11624E-02   -0.11628E-02  1440   0.771E-03 0.452E-05
CGA:   5    -0.171323052900E+03   -0.24496E-03   -0.24499E-03  1440   0.174E-03 0.173E-05
CGA:   6    -0.171323116620E+03   -0.63720E-04   -0.63708E-04  1440   0.506E-04 0.412E-06
CGA:   7    -0.171323136211E+03   -0.19590E-04   -0.19570E-04  1440   0.131E-04 0.428E-06
CGA:   8    -0.171323141171E+03   -0.49608E-05   -0.49571E-05  1440   0.290E-05 0.117E-06
  73 F= -.17132314E+03 E0= -.17132314E+03  d E =-.191651E-02
       N       E                     dE             d eps       ncg     rms          ort
SDA:   1    -0.171013895100E+03    0.30924E+00    0.00000E+00  1440   0.773E+00 0.000E+00
CGA:   2    -0.171267598734E+03   -0.25370E+00   -0.25371E+00  1440   0.167E+00 0.732E-04
CGA:   3    -0.171314706368E+03   -0.47108E-01   -0.47108E-01  1440   0.310E-01 0.197E-04
CGA:   4    -0.171322888260E+03   -0.81819E-02   -0.81832E-02  1440   0.542E-02 0.135E-04
CGA:   5    -0.171324608003E+03   -0.17197E-02   -0.17198E-02  1440   0.122E-02 0.502E-05
CGA:   6    -0.171325053047E+03   -0.44504E-03   -0.44499E-03  1440   0.353E-03 0.168E-05
CGA:   7    -0.171325190192E+03   -0.13714E-03   -0.13708E-03  1440   0.925E-04 0.133E-05
CGA:   8    -0.171325225043E+03   -0.34851E-04   -0.34841E-04  1440   0.205E-04 0.293E-06
CGA:   9    -0.171325232918E+03   -0.78742E-05   -0.78802E-05  1440   0.449E-05-0.136E-06
CGA:  10    -0.171325234660E+03   -0.17420E-05   -0.17428E-05  1440   0.108E-05-0.127E-07
  74 F= -.17132523E+03 E0= -.17132523E+03  d E =-.401000E-02
       N       E                     dE             d eps       ncg     rms          ort
SDA:   1    -0.171253006091E+03    0.72227E-01    0.00000E+00  1440   0.187E+00 0.000E+00
CGA:   2    -0.171313382320E+03   -0.60376E-01   -0.60377E-01  1440   0.406E-01 0.743E-05
CGA:   3    -0.171324838481E+03   -0.11456E-01   -0.11456E-01  1440   0.779E-02-0.290E-06
CGA:   4    -0.171326856108E+03   -0.20176E-02   -0.20179E-02  1440   0.136E-02 0.209E-05
CGA:   5    -0.171327286020E+03   -0.42991E-03   -0.42993E-03  1440   0.296E-03 0.826E-06
CGA:   6    -0.171327394048E+03   -0.10803E-03   -0.10805E-03  1440   0.859E-04-0.685E-06
CGA:   7    -0.171327427252E+03   -0.33203E-04   -0.33204E-04  1440   0.229E-04-0.513E-08
CGA:   8    -0.171327435845E+03   -0.85931E-05   -0.85922E-05  1440   0.510E-05 0.321E-07
CGA:   9    -0.171327437773E+03   -0.19284E-05   -0.19287E-05  1440   0.111E-05-0.524E-08
  75 F= -.17132744E+03 E0= -.17132744E+03  d E =-.220311E-02
       N       E                     dE             d eps       ncg     rms          ort
SDA:   1    -0.171170265784E+03    0.15717E+00    0.00000E+00  1440   0.397E+00 0.000E+00
CGA:   2    -0.171298740827E+03   -0.12848E+00   -0.12848E+00  1440   0.864E-01 0.361E-04
CGA:   3    -0.171323120572E+03   -0.24380E-01   -0.24378E-01  1440   0.165E-01-0.279E-05
CGA:   4    -0.171327408179E+03   -0.42876E-02   -0.42881E-02  1440   0.289E-02 0.357E-05
CGA:   5    -0.171328321432E+03   -0.91325E-03   -0.91328E-03  1440   0.630E-03 0.130E-05
CGA:   6    -0.171328551211E+03   -0.22978E-03   -0.22980E-03  1440   0.182E-03-0.850E-06
CGA:   7    -0.171328621841E+03   -0.70630E-04   -0.70629E-04  1440   0.487E-04 0.379E-07
CGA:   8    -0.171328640141E+03   -0.18300E-04   -0.18299E-04  1440   0.109E-04 0.391E-07
CGA:   9    -0.171328644244E+03   -0.41033E-05   -0.41040E-05  1440   0.236E-05-0.155E-07
  76 F= -.17132864E+03 E0= -.17132864E+03  d E =-.340958E-02
       N       E                     dE             d eps       ncg     rms          ort
SDA:   1    -0.171228698096E+03    0.99942E-01    0.00000E+00  1440   0.257E+00 0.000E+00
CGA:   2    -0.171312380803E+03   -0.83683E-01   -0.83682E-01  1440   0.546E-01-0.146E-04
CGA:   3    -0.171327909270E+03   -0.15528E-01   -0.15528E-01  1440   0.102E-01-0.253E-05
CGA:   4    -0.171330588751E+03   -0.26795E-02   -0.26795E-02  1440   0.181E-02-0.334E-07
CGA:   5    -0.171331158518E+03   -0.56977E-03   -0.56974E-03  1440   0.400E-03-0.111E-05
CGA:   6    -0.171331303889E+03   -0.14537E-03   -0.14540E-03  1440   0.116E-03-0.110E-05
CGA:   7    -0.171331348625E+03   -0.44736E-04   -0.44752E-04  1440   0.309E-04-0.328E-06
CGA:   8    -0.171331360207E+03   -0.11582E-04   -0.11584E-04  1440   0.693E-05-0.446E-07
CGA:   9    -0.171331362890E+03   -0.26830E-05   -0.26887E-05  1440   0.151E-05-0.120E-06
  77 F= -.17133136E+03 E0= -.17133136E+03  d E =-.271865E-02
       N       E                     dE             d eps       ncg     rms          ort
SDA:   1    -0.171174214980E+03    0.15715E+00    0.00000E+00  1440   0.396E+00 0.000E+00
CGA:   2    -0.171303288170E+03   -0.12907E+00   -0.12907E+00  1440   0.843E-01-0.231E-04
CGA:   3    -0.171327234759E+03   -0.23947E-01   -0.23947E-01  1440   0.158E-01-0.210E-05
CGA:   4    -0.171331368985E+03   -0.41342E-02   -0.41342E-02  1440   0.279E-02-0.874E-07
CGA:   5    -0.171332247646E+03   -0.87866E-03   -0.87863E-03  1440   0.616E-03-0.135E-05
CGA:   6    -0.171332471403E+03   -0.22376E-03   -0.22379E-03  1440   0.179E-03-0.128E-05
CGA:   7    -0.171332540231E+03   -0.68828E-04   -0.68846E-04  1440   0.474E-04-0.383E-06
CGA:   8    -0.171332558058E+03   -0.17827E-04   -0.17829E-04  1440   0.107E-04-0.653E-07
CGA:   9    -0.171332562176E+03   -0.41188E-05   -0.41257E-05  1440   0.231E-05-0.155E-06
  78 F= -.17133256E+03 E0= -.17133256E+03  d E =-.391793E-02
       N       E                     dE             d eps       ncg     rms          ort
SDA:   1    -0.171262255737E+03    0.70302E-01    0.00000E+00  1440   0.184E+00 0.000E+00
CGA:   2    -0.171321458537E+03   -0.59203E-01   -0.59202E-01  1440   0.392E-01-0.135E-04
CGA:   3    -0.171332487691E+03   -0.11029E-01   -0.11029E-01  1440   0.740E-02-0.350E-05
CGA:   4    -0.171334430259E+03   -0.19426E-02   -0.19424E-02  1440   0.133E-02-0.117E-05
CGA:   5    -0.171334849452E+03   -0.41919E-03   -0.41915E-03  1440   0.299E-03-0.162E-05
CGA:   6    -0.171334957554E+03   -0.10810E-03   -0.10813E-03  1440   0.851E-04-0.115E-05
CGA:   7    -0.171334990438E+03   -0.32884E-04   -0.32906E-04  1440   0.224E-04-0.454E-06
CGA:   8    -0.171334998814E+03   -0.83757E-05   -0.83777E-05  1440   0.510E-05-0.533E-07
CGA:   9    -0.171335000787E+03   -0.19729E-05   -0.19776E-05  1440   0.116E-05-0.998E-07
  79 F= -.17133500E+03 E0= -.17133500E+03  d E =-.243861E-02
       N       E                     dE             d eps       ncg     rms          ort
SDA:   1    -0.171158327710E+03    0.17667E+00    0.00000E+00  1440   0.450E+00 0.000E+00
CGA:   2    -0.171303275315E+03   -0.14495E+00   -0.14495E+00  1440   0.959E-01-0.340E-04
CGA:   3    -0.171330273600E+03   -0.26998E-01   -0.26999E-01  1440   0.181E-01-0.353E-05
CGA:   4    -0.171335030667E+03   -0.47571E-02   -0.47568E-02  1440   0.326E-02-0.212E-05
CGA:   5    -0.171336055258E+03   -0.10246E-02   -0.10245E-02  1440   0.729E-03-0.242E-05
CGA:   6    -0.171336318755E+03   -0.26350E-03   -0.26353E-03  1440   0.207E-03-0.161E-05
CGA:   7    -0.171336398763E+03   -0.80007E-04   -0.80038E-04  1440   0.544E-04-0.643E-06
CGA:   8    -0.171336419165E+03   -0.20402E-04   -0.20405E-04  1440   0.124E-04-0.919E-07
CGA:   9    -0.171336423948E+03   -0.47829E-05   -0.47902E-05  1440   0.280E-05-0.166E-06
  80 F= -.17133642E+03 E0= -.17133642E+03  d E =-.386177E-02
       N       E                     dE             d eps       ncg     rms          ort
SDA:   1    -0.171309717396E+03    0.26702E-01    0.00000E+00  1440   0.699E-01 0.000E+00
CGA:   2    -0.171332539924E+03   -0.22823E-01   -0.22822E-01  1440   0.155E-01-0.265E-05
CGA:   3    -0.171336907666E+03   -0.43677E-02   -0.43675E-02  1440   0.295E-02-0.273E-05
CGA:   4    -0.171337671509E+03   -0.76384E-03   -0.76383E-03  1440   0.528E-03-0.193E-06
CGA:   5    -0.171337836151E+03   -0.16464E-03   -0.16463E-03  1440   0.114E-03-0.453E-06
CGA:   6    -0.171337877063E+03   -0.40913E-04   -0.40929E-04  1440   0.325E-04-0.769E-06
CGA:   7    -0.171337889508E+03   -0.12444E-04   -0.12455E-04  1440   0.870E-05-0.227E-06
CGA:   8    -0.171337892762E+03   -0.32546E-05   -0.32552E-05  1440   0.195E-05-0.106E-07
  81 F= -.17133789E+03 E0= -.17133789E+03  d E =-.146881E-02
       N       E                     dE             d eps       ncg     rms          ort
SDA:   1    -0.171302350301E+03    0.35539E-01    0.00000E+00  1440   0.896E-01 0.000E+00
CGA:   2    -0.171331597606E+03   -0.29247E-01   -0.29247E-01  1440   0.198E-01-0.274E-05
CGA:   3    -0.171337194511E+03   -0.55969E-02   -0.55967E-02  1440   0.378E-02-0.312E-05
CGA:   4    -0.171338174404E+03   -0.97989E-03   -0.97988E-03  1440   0.673E-03-0.215E-06
CGA:   5    -0.171338384907E+03   -0.21050E-03   -0.21049E-03  1440   0.146E-03-0.510E-06
CGA:   6    -0.171338437192E+03   -0.52284E-04   -0.52304E-04  1440   0.416E-04-0.854E-06
CGA:   7    -0.171338453089E+03   -0.15897E-04   -0.15909E-04  1440   0.111E-04-0.249E-06
CGA:   8    -0.171338457252E+03   -0.41632E-05   -0.41638E-05  1440   0.250E-05-0.100E-07
[...]
SDA:   1    -0.171393030712E+03    0.11619E-02    0.00000E+00  1440   0.304E-02 0.000E+00
CGA:   2    -0.171393968681E+03   -0.93797E-03   -0.93798E-03  1440   0.733E-03 0.352E-06
CGA:   3    -0.171394171472E+03   -0.20279E-03   -0.20276E-03  1440   0.131E-03-0.499E-06
CGA:   4    -0.171394206442E+03   -0.34970E-04   -0.34951E-04  1440   0.250E-04-0.272E-06
CGA:   5    -0.171394214145E+03   -0.77031E-05   -0.76991E-05  1440   0.525E-05-0.173E-06
CGA:   6    -0.171394216118E+03   -0.19727E-05   -0.19750E-05  1440   0.143E-05-0.450E-07
CGA:   7    -0.171394216696E+03   -0.57879E-06   -0.57920E-06  1440   0.417E-06-0.257E-08
CGA:   8    -0.171394216852E+03   -0.15547E-06   -0.15576E-06  1440   0.100E-06-0.249E-08
 175 F= -.17139422E+03 E0= -.17139422E+03  d E =-.781319E-04
       N       E                     dE             d eps       ncg     rms          ort
SDA:   1    -0.171393988163E+03    0.22853E-03    0.00000E+00  1440   0.692E-03 0.000E+00
CGA:   2    -0.171394202033E+03   -0.21387E-03   -0.21388E-03  1440   0.154E-03 0.450E-06
CGA:   3    -0.171394245248E+03   -0.43215E-04   -0.43202E-04  1440   0.276E-04-0.211E-06
CGA:   4    -0.171394252609E+03   -0.73612E-05   -0.73593E-05  1440   0.536E-05-0.284E-07
CGA:   5    -0.171394254263E+03   -0.16539E-05   -0.16520E-05  1440   0.124E-05-0.811E-07
CGA:   6    -0.171394254707E+03   -0.44400E-06   -0.44392E-06  1440   0.341E-06 0.702E-08
CGA:   7    -0.171394254844E+03   -0.13739E-06   -0.13758E-06  1440   0.995E-07-0.353E-10
CGA:   8    -0.171394254879E+03   -0.35429E-07   -0.35548E-07  1440   0.221E-07 0.262E-08
 176 F= -.17139425E+03 E0= -.17139425E+03  d E =-.380275E-04
       N       E                     dE             d eps       ncg     rms          ort
SDA:   1    -0.171391947443E+03    0.23074E-02    0.00000E+00  1440   0.623E-02 0.000E+00
CGA:   2    -0.171393873055E+03   -0.19256E-02   -0.19257E-02  1440   0.138E-02 0.135E-05
CGA:   3    -0.171394261401E+03   -0.38835E-03   -0.38831E-03  1440   0.247E-03-0.617E-06
CGA:   4    -0.171394327559E+03   -0.66159E-04   -0.66152E-04  1440   0.484E-04-0.900E-07
CGA:   5    -0.171394342308E+03   -0.14749E-04   -0.14741E-04  1440   0.108E-04-0.232E-06
CGA:   6    -0.171394346280E+03   -0.39716E-05   -0.39710E-05  1440   0.305E-05 0.255E-07
CGA:   7    -0.171394347500E+03   -0.12201E-05   -0.12202E-05  1440   0.881E-06 0.720E-09
CGA:   8    -0.171394347819E+03   -0.31946E-06   -0.31942E-06  1440   0.201E-06 0.979E-08
 177 F= -.17139435E+03 E0= -.17139435E+03  d E =-.130967E-03
       N       E                     dE             d eps       ncg     rms          ort
SDA:   1    -0.171384812235E+03    0.95353E-02    0.00000E+00  1440   0.249E-01 0.000E+00
CGA:   2    -0.171392514474E+03   -0.77022E-02   -0.77023E-02  1440   0.553E-02 0.254E-05
CGA:   3    -0.171394067601E+03   -0.15531E-02   -0.15531E-02  1440   0.990E-03-0.118E-05
CGA:   4    -0.171394332357E+03   -0.26476E-03   -0.26474E-03  1440   0.193E-03-0.198E-06
CGA:   5    -0.171394391266E+03   -0.58909E-04   -0.58894E-04  1440   0.433E-04-0.452E-06
CGA:   6    -0.171394407195E+03   -0.15929E-04   -0.15927E-04  1440   0.123E-04 0.683E-07
CGA:   7    -0.171394412089E+03   -0.48938E-05   -0.48935E-05  1440   0.353E-05 0.640E-08
CGA:   8    -0.171394413378E+03   -0.12893E-05   -0.12890E-05  1440   0.814E-06 0.202E-07
 178 F= -.17139441E+03 E0= -.17139441E+03  d E =-.196526E-03
       N       E                     dE             d eps       ncg     rms          ort
SDA:   1    -0.171393576939E+03    0.83515E-03    0.00000E+00  1440   0.231E-02 0.000E+00
CGA:   2    -0.171394294455E+03   -0.71752E-03   -0.71753E-03  1440   0.521E-03 0.370E-06
CGA:   3    -0.171394443181E+03   -0.14873E-03   -0.14867E-03  1440   0.889E-04-0.943E-06
CGA:   4    -0.171394467300E+03   -0.24120E-04   -0.24101E-04  1440   0.177E-04-0.274E-06
CGA:   5    -0.171394472636E+03   -0.53356E-05   -0.53296E-05  1440   0.411E-05-0.182E-06
CGA:   6    -0.171394474157E+03   -0.15208E-05   -0.15248E-05  1440   0.121E-05-0.953E-07
CGA:   7    -0.171394474641E+03   -0.48375E-06   -0.48858E-06  1440   0.368E-06-0.595E-07
CGA:   8    -0.171394474768E+03   -0.12752E-06   -0.12784E-06  1440   0.805E-07-0.746E-08
 179 F= -.17139447E+03 E0= -.17139447E+03  d E =-.613899E-04
       N       E                     dE             d eps       ncg     rms          ort
SDA:   1    -0.171386498960E+03    0.79757E-02    0.00000E+00  1440   0.207E-01 0.000E+00
CGA:   2    -0.171392956221E+03   -0.64573E-02   -0.64573E-02  1440   0.468E-02 0.101E-05
CGA:   3    -0.171394291687E+03   -0.13355E-02   -0.13353E-02  1440   0.801E-03-0.281E-05
CGA:   4    -0.171394508031E+03   -0.21634E-03   -0.21629E-03  1440   0.160E-03-0.797E-06
CGA:   5    -0.171394556037E+03   -0.48007E-04   -0.47988E-04  1440   0.362E-04-0.539E-06
CGA:   6    -0.171394569373E+03   -0.13336E-04   -0.13345E-04  1440   0.103E-04-0.258E-06
CGA:   7    -0.171394573514E+03   -0.41406E-05   -0.41523E-05  1440   0.302E-05-0.166E-06
CGA:   8    -0.171394574611E+03   -0.10973E-05   -0.10981E-05  1440   0.680E-06-0.250E-07
 180 F= -.17139457E+03 E0= -.17139457E+03  d E =-.161233E-03
       N       E                     dE             d eps       ncg     rms          ort
SDA:   1    -0.171393930898E+03    0.64262E-03    0.00000E+00  1440   0.167E-02 0.000E+00
CGA:   2    -0.171394449617E+03   -0.51872E-03   -0.51873E-03  1440   0.377E-03 0.306E-06
CGA:   3    -0.171394557187E+03   -0.10757E-03   -0.10753E-03  1440   0.643E-04-0.806E-06
CGA:   4    -0.171394574628E+03   -0.17441E-04   -0.17425E-04  1440   0.128E-04-0.228E-06
CGA:   5    -0.171394578490E+03   -0.38616E-05   -0.38565E-05  1440   0.299E-05-0.159E-06
CGA:   6    -0.171394579595E+03   -0.11058E-05   -0.11094E-05  1440   0.882E-06-0.821E-07
CGA:   7    -0.171394579949E+03   -0.35377E-06   -0.35812E-06  1440   0.272E-06-0.516E-07
CGA:   8    -0.171394580043E+03   -0.93424E-07   -0.93706E-07  1440   0.595E-07-0.704E-08
 181 F= -.17139458E+03 E0= -.17139458E+03  d E =-.166664E-03
       N       E                     dE             d eps       ncg     rms          ort
SDA:   1    -0.171391776539E+03    0.28034E-02    0.00000E+00  1440   0.739E-02 0.000E+00
CGA:   2    -0.171394096943E+03   -0.23204E-02   -0.23204E-02  1440   0.169E-02-0.472E-06
CGA:   3    -0.171394577797E+03   -0.48085E-03   -0.48073E-03  1440   0.291E-03-0.217E-05
CGA:   4    -0.171394656677E+03   -0.78880E-04   -0.78820E-04  1440   0.581E-04-0.883E-06
CGA:   5    -0.171394674201E+03   -0.17524E-04   -0.17512E-04  1440   0.132E-04-0.362E-06
CGA:   6    -0.171394679132E+03   -0.49315E-05   -0.49450E-05  1440   0.386E-05-0.311E-06
CGA:   7    -0.171394680697E+03   -0.15648E-05   -0.15796E-05  1440   0.115E-05-0.178E-06
CGA:   8    -0.171394681105E+03   -0.40812E-06   -0.40905E-06  1440   0.250E-06-0.257E-07
 182 F= -.17139468E+03 E0= -.17139468E+03  d E =-.101063E-03
       N       E                     dE             d eps       ncg     rms          ort
SDA:   1    -0.171392361931E+03    0.23188E-02    0.00000E+00  1440   0.598E-02 0.000E+00
CGA:   2    -0.171394238232E+03   -0.18763E-02   -0.18763E-02  1440   0.137E-02-0.441E-06
CGA:   3    -0.171394627109E+03   -0.38888E-03   -0.38877E-03  1440   0.236E-03-0.195E-05
CGA:   4    -0.171394690918E+03   -0.63809E-04   -0.63756E-04  1440   0.469E-04-0.793E-06
CGA:   5    -0.171394705090E+03   -0.14171E-04   -0.14161E-04  1440   0.107E-04-0.329E-06
CGA:   6    -0.171394709101E+03   -0.40114E-05   -0.40244E-05  1440   0.316E-05-0.283E-06
CGA:   7    -0.171394710380E+03   -0.12786E-05   -0.12926E-05  1440   0.948E-06-0.162E-06
CGA:   8    -0.171394710713E+03   -0.33360E-06   -0.33460E-06  1440   0.205E-06-0.235E-07
 183 F= -.17139471E+03 E0= -.17139471E+03  d E =-.130671E-03
       N       E                     dE             d eps       ncg     rms          ort
SDA:   1    -0.171394465333E+03    0.24505E-03    0.00000E+00  1440   0.695E-03 0.000E+00
CGA:   2    -0.171394688659E+03   -0.22333E-03   -0.22332E-03  1440   0.151E-03-0.451E-06
CGA:   3    -0.171394731263E+03   -0.42604E-04   -0.42599E-04  1440   0.283E-04-0.828E-07
CGA:   4    -0.171394738825E+03   -0.75626E-05   -0.75531E-05  1440   0.529E-05-0.136E-06
CGA:   5    -0.171394740482E+03   -0.16564E-05   -0.16555E-05  1440   0.125E-05-0.539E-07
CGA:   6    -0.171394740941E+03   -0.45894E-06   -0.46049E-06  1440   0.381E-06-0.349E-07
CGA:   7    -0.171394741090E+03   -0.14940E-06   -0.15078E-06  1440   0.110E-06-0.166E-07
CGA:   8    -0.171394741129E+03   -0.38926E-07   -0.39182E-07  1440   0.237E-07-0.235E-08
 184 F= -.17139474E+03 E0= -.17139474E+03  d E =-.304156E-04
       N       E                     dE             d eps       ncg     rms          ort
SDA:   1    -0.171393900928E+03    0.84016E-03    0.00000E+00  1440   0.217E-02 0.000E+00
CGA:   2    -0.171394598158E+03   -0.69723E-03   -0.69722E-03  1440   0.472E-03-0.768E-06
CGA:   3    -0.171394731176E+03   -0.13302E-03   -0.13301E-03  1440   0.883E-04-0.151E-06
CGA:   4    -0.171394754724E+03   -0.23547E-04   -0.23530E-04  1440   0.166E-04-0.247E-06
CGA:   5    -0.171394759894E+03   -0.51700E-05   -0.51682E-05  1440   0.384E-05-0.929E-07
CGA:   6    -0.171394761299E+03   -0.14055E-05   -0.14077E-05  1440   0.114E-05-0.574E-07
CGA:   7    -0.171394761751E+03   -0.45137E-06   -0.45343E-06  1440   0.323E-06-0.275E-07
CGA:   8    -0.171394761868E+03   -0.11755E-06   -0.11779E-06  1440   0.696E-07-0.313E-08
 185 F= -.17139476E+03 E0= -.17139476E+03  d E =-.511549E-04
       N       E                     dE             d eps       ncg     rms          ort
SDA:   1    -0.171394456010E+03    0.30574E-03    0.00000E+00  1440   0.853E-03 0.000E+00
CGA:   2    -0.171394727337E+03   -0.27133E-03   -0.27132E-03  1440   0.197E-03-0.354E-06
CGA:   3    -0.171394780879E+03   -0.53543E-04   -0.53578E-04  1440   0.377E-04 0.525E-06
CGA:   4    -0.171394790820E+03   -0.99411E-05   -0.99546E-05  1440   0.668E-05 0.184E-06
CGA:   5    -0.171394792919E+03   -0.20983E-05   -0.21005E-05  1440   0.148E-05 0.105E-06
CGA:   6    -0.171394793463E+03   -0.54489E-06   -0.54387E-06  1440   0.410E-06 0.383E-07
CGA:   7    -0.171394793622E+03   -0.15825E-06   -0.15679E-06  1440   0.105E-06 0.423E-07
CGA:   8    -0.171394793666E+03   -0.44384E-07   -0.44227E-07  1440   0.273E-07 0.711E-08
 186 F= -.17139479E+03 E0= -.17139479E+03  d E =-.317979E-04
       N       E                     dE             d eps       ncg     rms          ort
SDA:   1    -0.171393786880E+03    0.10067E-02    0.00000E+00  1440   0.260E-02 0.000E+00
CGA:   2    -0.171394613259E+03   -0.82638E-03   -0.82637E-03  1440   0.599E-03-0.579E-06
CGA:   3    -0.171394776640E+03   -0.16338E-03   -0.16344E-03  1440   0.115E-03 0.922E-06
CGA:   4    -0.171394807027E+03   -0.30388E-04   -0.30410E-04  1440   0.205E-04 0.322E-06
CGA:   5    -0.171394813486E+03   -0.64584E-05   -0.64614E-05  1440   0.454E-05 0.188E-06
CGA:   6    -0.171394815159E+03   -0.16735E-05   -0.16712E-05  1440   0.127E-05 0.697E-07
CGA:   7    -0.171394815659E+03   -0.50003E-06   -0.49586E-06  1440   0.334E-06 0.789E-07
CGA:   8    -0.171394815796E+03   -0.13637E-06   -0.13597E-06  1440   0.829E-07 0.112E-07
 187 F= -.17139482E+03 E0= -.17139482E+03  d E =-.539275E-04
       N       E                     dE             d eps       ncg     rms          ort
SDA:   1    -0.171394530713E+03    0.28495E-03    0.00000E+00  1440   0.818E-03 0.000E+00
CGA:   2    -0.171394787561E+03   -0.25685E-03   -0.25685E-03  1440   0.181E-03-0.878E-07
CGA:   3    -0.171394837198E+03   -0.49637E-04   -0.49696E-04  1440   0.339E-04 0.981E-06
CGA:   4    -0.171394846129E+03   -0.89306E-05   -0.89628E-05  1440   0.602E-05 0.464E-06
CGA:   5    -0.171394847982E+03   -0.18535E-05   -0.18604E-05  1440   0.132E-05 0.288E-06
CGA:   6    -0.171394848470E+03   -0.48786E-06   -0.48549E-06  1440   0.369E-06 0.105E-06
CGA:   7    -0.171394848607E+03   -0.13675E-06   -0.13595E-06  1440   0.972E-07 0.756E-07
CGA:   8    -0.171394848646E+03   -0.39206E-07   -0.39189E-07  1440   0.263E-07 0.224E-07
 188 F= -.17139485E+03 E0= -.17139485E+03  d E =-.328502E-04
       N       E                     dE             d eps       ncg     rms          ort
SDA:   1    -0.171392034872E+03    0.28137E-02    0.00000E+00  1440   0.736E-02 0.000E+00
CGA:   2    -0.171394345726E+03   -0.23109E-02   -0.23109E-02  1440   0.163E-02 0.205E-07
CGA:   3    -0.171394794483E+03   -0.44876E-03   -0.44891E-03  1440   0.307E-03 0.298E-05
CGA:   4    -0.171394875844E+03   -0.81361E-04   -0.81449E-04  1440   0.552E-04 0.142E-05
CGA:   5    -0.171394893164E+03   -0.17320E-04   -0.17329E-04  1440   0.124E-04 0.905E-06
CGA:   6    -0.171394897733E+03   -0.45698E-05   -0.45575E-05  1440   0.351E-05 0.319E-06
CGA:   7    -0.171394899114E+03   -0.13811E-05   -0.13675E-05  1440   0.927E-06 0.251E-06
CGA:   8    -0.171394899487E+03   -0.37229E-06   -0.37045E-06  1440   0.231E-06 0.466E-07
 189 F= -.17139490E+03 E0= -.17139490E+03  d E =-.836910E-04
       N       E                     dE             d eps       ncg     rms          ort
SDA:   1    -0.171394716712E+03    0.18240E-03    0.00000E+00  1440   0.477E-03 0.000E+00
CGA:   2    -0.171394866491E+03   -0.14978E-03   -0.14978E-03  1440   0.105E-03-0.634E-07
CGA:   3    -0.171394895366E+03   -0.28875E-04   -0.28917E-04  1440   0.196E-04 0.755E-06
CGA:   4    -0.171394900539E+03   -0.51727E-05   -0.51961E-05  1440   0.346E-05 0.363E-06
CGA:   5    -0.171394901599E+03   -0.10603E-05   -0.10651E-05  1440   0.760E-06 0.220E-06
CGA:   6    -0.171394901880E+03   -0.28158E-06   -0.27982E-06  1440   0.214E-06 0.838E-07
CGA:   7    -0.171394901957E+03   -0.76968E-07   -0.77082E-07  1440   0.588E-07 0.576E-07
CGA:   8    -0.171394901980E+03   -0.22481E-07   -0.22966E-07  1440   0.169E-07 0.198E-07
 190 F= -.17139490E+03 E0= -.17139490E+03  d E =-.861843E-04
       N       E                     dE             d eps       ncg     rms          ort
SDA:   1    -0.171394211524E+03    0.69043E-03    0.00000E+00  1440   0.187E-02 0.000E+00
CGA:   2    -0.171394807166E+03   -0.59564E-03   -0.59564E-03  1440   0.400E-03 0.374E-06
CGA:   3    -0.171394919115E+03   -0.11195E-03   -0.11203E-03  1440   0.768E-04 0.207E-05
CGA:   4    -0.171394939236E+03   -0.20121E-04   -0.20180E-04  1440   0.138E-04 0.997E-06
CGA:   5    -0.171394943581E+03   -0.43454E-05   -0.43488E-05  1440   0.305E-05 0.576E-06
CGA:   6    -0.171394944706E+03   -0.11247E-05   -0.11162E-05  1440   0.858E-06 0.252E-06
CGA:   7    -0.171394945038E+03   -0.33233E-06   -0.32762E-06  1440   0.225E-06 0.142E-06
CGA:   8    -0.171394945133E+03   -0.94418E-07   -0.93213E-07  1440   0.563E-07 0.383E-07
 191 F= -.17139495E+03 E0= -.17139495E+03  d E =-.431527E-04
       N       E                     dE             d eps       ncg     rms          ort
SDA:   1    -0.171393511942E+03    0.14331E-02    0.00000E+00  1440   0.370E-02 0.000E+00
CGA:   2    -0.171394693652E+03   -0.11817E-02   -0.11817E-02  1440   0.793E-03 0.568E-06
CGA:   3    -0.171394916122E+03   -0.22247E-03   -0.22259E-03  1440   0.153E-03 0.290E-05
CGA:   4    -0.171394956212E+03   -0.40090E-04   -0.40172E-04  1440   0.275E-04 0.140E-05
CGA:   5    -0.171394964926E+03   -0.87139E-05   -0.87170E-05  1440   0.617E-05 0.815E-06
CGA:   6    -0.171394967203E+03   -0.22776E-05   -0.22638E-05  1440   0.175E-05 0.357E-06
CGA:   7    -0.171394967890E+03   -0.68617E-06   -0.67702E-06  1440   0.458E-06 0.203E-06
CGA:   8    -0.171394968081E+03   -0.19119E-06   -0.18905E-06  1440   0.110E-06 0.475E-07
 192 F= -.17139497E+03 E0= -.17139497E+03  d E =-.661009E-04
       N       E                     dE             d eps       ncg     rms          ort
SDA:   1    -0.171394289706E+03    0.67818E-03    0.00000E+00  1440   0.181E-02 0.000E+00
CGA:   2    -0.171394873221E+03   -0.58352E-03   -0.58351E-03  1440   0.397E-03-0.310E-06
CGA:   3    -0.171394983387E+03   -0.11017E-03   -0.11025E-03  1440   0.792E-04 0.172E-05
CGA:   4    -0.171395004200E+03   -0.20813E-04   -0.20853E-04  1440   0.143E-04 0.660E-06
CGA:   5    -0.171395008812E+03   -0.46122E-05   -0.46126E-05  1440   0.331E-05 0.355E-06
CGA:   6    -0.171395010044E+03   -0.12325E-05   -0.12261E-05  1440   0.964E-06 0.162E-06
CGA:   7    -0.171395010414E+03   -0.36995E-06   -0.36567E-06  1440   0.246E-06 0.114E-06
CGA:   8    -0.171395010521E+03   -0.10670E-06   -0.10590E-06  1440   0.627E-07 0.171E-07
 193 F= -.17139501E+03 E0= -.17139501E+03  d E =-.424401E-04
       N       E                     dE             d eps       ncg     rms          ort
SDA:   1    -0.171393682343E+03    0.13281E-02    0.00000E+00  1440   0.338E-02 0.000E+00
CGA:   2    -0.171394774649E+03   -0.10923E-02   -0.10923E-02  1440   0.743E-03-0.382E-06
CGA:   3    -0.171394981197E+03   -0.20655E-03   -0.20666E-03  1440   0.148E-03 0.234E-05
CGA:   4    -0.171395020244E+03   -0.39047E-04   -0.39104E-04  1440   0.269E-04 0.893E-06
CGA:   5    -0.171395028936E+03   -0.86918E-05   -0.86926E-05  1440   0.625E-05 0.485E-06
CGA:   6    -0.171395031261E+03   -0.23253E-05   -0.23163E-05  1440   0.183E-05 0.221E-06
CGA:   7    -0.171395031969E+03   -0.70829E-06   -0.70126E-06  1440   0.472E-06 0.157E-06
CGA:   8    -0.171395032169E+03   -0.20002E-06   -0.19899E-06  1440   0.117E-06 0.190E-07
 194 F= -.17139503E+03 E0= -.17139503E+03  d E =-.640885E-04
       N       E                     dE             d eps       ncg     rms          ort
SDA:   1    -0.171394495062E+03    0.53691E-03    0.00000E+00  1440   0.142E-02 0.000E+00
CGA:   2    -0.171394958572E+03   -0.46351E-03   -0.46351E-03  1440   0.322E-03-0.744E-06
CGA:   3    -0.171395047680E+03   -0.89108E-04   -0.89167E-04  1440   0.634E-04 0.110E-05
CGA:   4    -0.171395064405E+03   -0.16726E-04   -0.16743E-04  1440   0.113E-04 0.269E-06
CGA:   5    -0.171395068013E+03   -0.36075E-05   -0.36089E-05  1440   0.262E-05 0.168E-06
CGA:   6    -0.171395068985E+03   -0.97238E-06   -0.97050E-06  1440   0.780E-06 0.501E-07
CGA:   7    -0.171395069279E+03   -0.29410E-06   -0.29147E-06  1440   0.200E-06 0.700E-07
CGA:   8    -0.171395069364E+03   -0.85044E-07   -0.84899E-07  1440   0.528E-07 0.552E-08
 195 F= -.17139507E+03 E0= -.17139507E+03  d E =-.371951E-04
       N       E                     dE             d eps       ncg     rms          ort
SDA:   1    -0.171392828755E+03    0.22405E-02    0.00000E+00  1440   0.560E-02 0.000E+00
CGA:   2    -0.171394658898E+03   -0.18301E-02   -0.18301E-02  1440   0.127E-02-0.132E-05
CGA:   3    -0.171395011608E+03   -0.35271E-03   -0.35282E-03  1440   0.251E-03 0.219E-05
CGA:   4    -0.171395077852E+03   -0.66244E-04   -0.66279E-04  1440   0.450E-04 0.526E-06
CGA:   5    -0.171395092227E+03   -0.14376E-04   -0.14378E-04  1440   0.104E-04 0.340E-06
CGA:   6    -0.171395096078E+03   -0.38504E-05   -0.38465E-05  1440   0.310E-05 0.100E-06
CGA:   7    -0.171395097277E+03   -0.11989E-05   -0.11914E-05  1440   0.823E-06 0.144E-06
CGA:   8    -0.171395097611E+03   -0.33407E-06   -0.33396E-06  1440   0.205E-06 0.536E-08
 196 F= -.17139510E+03 E0= -.17139510E+03  d E =-.654414E-04
       N       E                     dE             d eps       ncg     rms          ort
SDA:   1    -0.171394847404E+03    0.24987E-03    0.00000E+00  1440   0.672E-03 0.000E+00
CGA:   2    -0.171395069964E+03   -0.22256E-03   -0.22256E-03  1440   0.144E-03-0.117E-06
CGA:   3    -0.171395111712E+03   -0.41748E-04   -0.41760E-04  1440   0.264E-04 0.275E-06
CGA:   4    -0.171395118683E+03   -0.69713E-05   -0.69773E-05  1440   0.476E-05 0.879E-07
CGA:   5    -0.171395120164E+03   -0.14803E-05   -0.14817E-05  1440   0.107E-05 0.715E-07
CGA:   6    -0.171395120562E+03   -0.39875E-06   -0.39875E-06  1440   0.333E-06 0.488E-08
CGA:   7    -0.171395120693E+03   -0.13082E-06   -0.13096E-06  1440   0.972E-07 0.116E-08
CGA:   8    -0.171395120729E+03   -0.35811E-07   -0.35826E-07  1440   0.212E-07 0.299E-08
 197 F= -.17139512E+03 E0= -.17139512E+03  d E =-.231182E-04
