<?xml version="1.0" encoding="ISO-8859-1"?>
<modeling>
 <generator>
  <i name="program" type="string">vasp </i>
  <i name="version" type="string">6.3.1  </i>
  <i name="subversion" type="string">04May22 (build May 25 2022 13:42:54) complex                          parallel </i>
  <i name="platform" type="string">HPECrayEX_GCC </i>
  <i name="date" type="string">2022 09 18 </i>
  <i name="time" type="string">14:39:19 </i>
 </generator>
 <incar>
  <i type="string" name="SYSTEM">cubic-FASnI3</i>
  <i type="int" name="ISTART">     0</i>
  <i type="string" name="PREC">Accurate</i>
  <i type="string" name="ALGO">ALL</i>
  <i type="int" name="ISPIN">     1</i>
  <i type="int" name="NELM">   200</i>
  <i type="int" name="NELMIN">     8</i>
  <i type="int" name="IBRION">     2</i>
  <i name="EDIFF">      0.00000500</i>
  <i name="EDIFFG">     -0.01000000</i>
  <i type="int" name="NSW">  1000</i>
  <i type="int" name="ISIF">     3</i>
  <i type="int" name="ISYM">     0</i>
  <i name="ENCUT">   1000.00000000</i>
  <i type="logical" name="LREAL"> F  </i>
  <i type="int" name="ISMEAR">     0</i>
  <i name="SIGMA">      0.05000000</i>
  <i type="logical" name="LWAVE"> F  </i>
  <i type="logical" name="LCHARG"> F  </i>
  <i type="logical" name="LASPH"> T  </i>
  <i type="string" name="GGA">MK</i>
  <i name="PARAM1">      0.12340000</i>
  <i name="PARAM2">      1.00000000</i>
  <i type="logical" name="LUSE_VDW"> T  </i>
  <i name="AGGAC">      0.00000000</i>
 </incar>
 <primitive_cell>
  <structure name="primitive_cell" >
   <crystal>
    <varray name="basis" >
     <v>      12.61480000       0.00000000       0.00000000 </v>
     <v>       0.00000000       6.30740000       0.00000000 </v>
     <v>       0.00000000       0.00000000      12.61480000 </v>
    </varray>
    <i name="volume">   1003.71661348 </i>
    <varray name="rec_basis" >
     <v>       0.07927197       0.00000000       0.00000000 </v>
     <v>       0.00000000       0.15854393       0.00000000 </v>
     <v>       0.00000000       0.00000000       0.07927197 </v>
    </varray>
   </crystal>
   <varray name="positions" >
    <v>       0.47334637       0.05432168       0.99921489 </v>
    <v>       0.47334637       0.05432168       0.49921489 </v>
    <v>       0.97334637       0.05432168       0.99921489 </v>
    <v>       0.97334637       0.05432168       0.49921489 </v>
    <v>       0.03449846       0.81080160       0.41236526 </v>
    <v>       0.09427120       0.93491789       0.08834172 </v>
    <v>       0.02676246       0.14954103       0.14159976 </v>
    <v>       0.42733419       0.94334886       0.35717950 </v>
    <v>       0.41226295       0.17605697       0.99841312 </v>
    <v>       0.03449846       0.81080160       0.91236526 </v>
    <v>       0.09427120       0.93491789       0.58834172 </v>
    <v>       0.02676246       0.14954103       0.64159976 </v>
    <v>       0.42733419       0.94334886       0.85717950 </v>
    <v>       0.41226295       0.17605697       0.49841312 </v>
    <v>       0.53449846       0.81080160       0.41236526 </v>
    <v>       0.59427120       0.93491789       0.08834172 </v>
    <v>       0.52676246       0.14954103       0.14159976 </v>
    <v>       0.92733419       0.94334886       0.35717950 </v>
    <v>       0.91226295       0.17605697       0.99841312 </v>
    <v>       0.53449846       0.81080160       0.91236526 </v>
    <v>       0.59427120       0.93491789       0.58834172 </v>
    <v>       0.52676246       0.14954103       0.64159976 </v>
    <v>       0.92733419       0.94334886       0.85717950 </v>
    <v>       0.91226295       0.17605697       0.49841312 </v>
    <v>       0.00000000       0.50000000       0.25000000 </v>
    <v>       0.25000000       0.00000000       0.25000000 </v>
    <v>       0.25000000       0.50000000       0.00000000 </v>
    <v>       0.00000000       0.50000000       0.75000000 </v>
    <v>       0.25000000       0.00000000       0.75000000 </v>
    <v>       0.25000000       0.50000000       0.50000000 </v>
    <v>       0.50000000       0.50000000       0.25000000 </v>
    <v>       0.75000000       0.00000000       0.25000000 </v>
    <v>       0.75000000       0.50000000       0.00000000 </v>
    <v>       0.50000000       0.50000000       0.75000000 </v>
    <v>       0.75000000       0.00000000       0.75000000 </v>
    <v>       0.75000000       0.50000000       0.50000000 </v>
    <v>       0.03436811       0.04122229       0.08251666 </v>
    <v>       0.48104404       0.93023118       0.41678077 </v>
    <v>       0.03436811       0.04122229       0.58251666 </v>
    <v>       0.48104404       0.93023118       0.91678077 </v>
    <v>       0.53436811       0.04122229       0.08251666 </v>
    <v>       0.98104404       0.93023118       0.41678077 </v>
    <v>       0.53436811       0.04122229       0.58251666 </v>
    <v>       0.98104404       0.93023118       0.91678077 </v>
    <v>       0.25000000       0.50000000       0.25000000 </v>
    <v>       0.25000000       0.50000000       0.75000000 </v>
    <v>       0.75000000       0.50000000       0.25000000 </v>
    <v>       0.75000000       0.50000000       0.75000000 </v>
   </varray>
  </structure>
  <varray name="primitive_index" >
   <v type="int" >        1 </v>
   <v type="int" >        2 </v>
   <v type="int" >        3 </v>
   <v type="int" >        4 </v>
   <v type="int" >        5 </v>
   <v type="int" >        6 </v>
   <v type="int" >        7 </v>
   <v type="int" >        8 </v>
   <v type="int" >        9 </v>
   <v type="int" >       10 </v>
   <v type="int" >       11 </v>
   <v type="int" >       12 </v>
   <v type="int" >       13 </v>
   <v type="int" >       14 </v>
   <v type="int" >       15 </v>
   <v type="int" >       16 </v>
   <v type="int" >       17 </v>
   <v type="int" >       18 </v>
   <v type="int" >       19 </v>
   <v type="int" >       20 </v>
   <v type="int" >       21 </v>
   <v type="int" >       22 </v>
   <v type="int" >       23 </v>
   <v type="int" >       24 </v>
   <v type="int" >       25 </v>
   <v type="int" >       26 </v>
   <v type="int" >       27 </v>
   <v type="int" >       28 </v>
   <v type="int" >       29 </v>
   <v type="int" >       30 </v>
   <v type="int" >       31 </v>
   <v type="int" >       32 </v>
   <v type="int" >       33 </v>
   <v type="int" >       34 </v>
   <v type="int" >       35 </v>
   <v type="int" >       36 </v>
   <v type="int" >       37 </v>
   <v type="int" >       38 </v>
   <v type="int" >       39 </v>
   <v type="int" >       40 </v>
   <v type="int" >       41 </v>
   <v type="int" >       42 </v>
   <v type="int" >       43 </v>
   <v type="int" >       44 </v>
   <v type="int" >       45 </v>
   <v type="int" >       46 </v>
   <v type="int" >       47 </v>
   <v type="int" >       48 </v>
  </varray>
 </primitive_cell>
 <kpoints>
  <generation param="Gamma">
   <v type="int" name="divisions">       2        4        2 </v>
   <v name="usershift">      0.00000000       0.00000000       0.00000000 </v>
   <v name="genvec1">      0.50000000       0.00000000       0.00000000 </v>
   <v name="genvec2">      0.00000000       0.25000000       0.00000000 </v>
   <v name="genvec3">      0.00000000       0.00000000       0.50000000 </v>
   <v name="shift">      0.00000000       0.00000000       0.00000000 </v>
  </generation>
  <varray name="kpointlist" >
   <v>       0.00000000       0.00000000       0.00000000 </v>
   <v>       0.50000000       0.00000000       0.00000000 </v>
   <v>       0.00000000       0.00000000       0.50000000 </v>
   <v>       0.00000000       0.25000000       0.00000000 </v>
   <v>       0.50000000       0.25000000       0.00000000 </v>
   <v>       0.00000000       0.25000000       0.50000000 </v>
   <v>       0.00000000       0.50000000       0.00000000 </v>
   <v>       0.50000000       0.50000000       0.00000000 </v>
   <v>       0.00000000       0.50000000       0.50000000 </v>
   <v>       0.50000000       0.00000000       0.50000000 </v>
   <v>       0.50000000       0.25000000       0.50000000 </v>
   <v>       0.50000000       0.50000000       0.50000000 </v>
  </varray>
  <varray name="weights" >
   <v>       0.06250000 </v>
   <v>       0.06250000 </v>
   <v>       0.06250000 </v>
   <v>       0.12500000 </v>
   <v>       0.12500000 </v>
   <v>       0.12500000 </v>
   <v>       0.06250000 </v>
   <v>       0.06250000 </v>
   <v>       0.06250000 </v>
   <v>       0.06250000 </v>
   <v>       0.12500000 </v>
   <v>       0.06250000 </v>
  </varray>
 </kpoints>
 <parameters>
  <separator name="general" >
   <i type="string" name="SYSTEM">cubic-FASnI3</i>
   <i type="logical" name="LCOMPAT"> F  </i>
  </separator>
  <separator name="electronic" >
   <i type="string" name="PREC">accura</i>
   <i name="ENMAX">   1000.00000000</i>
   <i name="ENAUG">    644.87300000</i>
   <i name="EDIFF">      0.00000500</i>
   <i type="int" name="IALGO">    58</i>
   <i type="int" name="IWAVPR">    11</i>
   <i type="int" name="NBANDS">   120</i>
   <i type="int" name="NBANDSLOW">    -1</i>
   <i type="int" name="NBANDSHIGH">    -1</i>
   <i name="NELECT">    176.00000000</i>
   <i type="int" name="TURBO">     0</i>
   <i type="int" name="IRESTART">     0</i>
   <i type="int" name="NREBOOT">     0</i>
   <i type="int" name="NMIN">     0</i>
   <i name="EREF">      0.00000000</i>
   <separator name="electronic smearing" >
    <i type="int" name="ISMEAR">     0</i>
    <i name="SIGMA">      0.05000000</i>
    <i name="KSPACING">      0.50000000</i>
    <i type="logical" name="KGAMMA"> T  </i>
    <i type="logical" name="KBLOWUP"> T  </i>
   </separator>
   <separator name="electronic projectors" >
    <i type="logical" name="LREAL"> F  </i>
    <v name="ROPT">      0.00000000      0.00000000      0.00000000      0.00000000      0.00000000</v>
    <i type="int" name="LMAXPAW">  -100</i>
    <i type="int" name="LMAXMIX">     2</i>
    <i type="logical" name="NLSPLINE"> F  </i>
   </separator>
   <separator name="electronic startup" >
    <i type="int" name="ISTART">     0</i>
    <i type="int" name="ICHARG">     2</i>
    <i type="int" name="INIWAV">     1</i>
   </separator>
   <separator name="electronic spin" >
    <i type="int" name="ISPIN">     1</i>
    <i type="logical" name="LNONCOLLINEAR"> F  </i>
    <v name="MAGMOM">      1.00000000      1.00000000      1.00000000      1.00000000      1.00000000      1.00000000      1.00000000      1.00000000      1.00000000      1.00000000      1.00000000      1.00000000      1.00000000      1.00000000      1.00000000      1.00000000      1.00000000      1.00000000      1.00000000      1.00000000
      1.00000000      1.00000000      1.00000000      1.00000000      1.00000000      1.00000000      1.00000000      1.00000000      1.00000000      1.00000000      1.00000000      1.00000000      1.00000000      1.00000000      1.00000000      1.00000000      1.00000000      1.00000000      1.00000000      1.00000000
      1.00000000      1.00000000      1.00000000      1.00000000      1.00000000      1.00000000      1.00000000      1.00000000</v>
    <i name="NUPDOWN">     -1.00000000</i>
    <i type="logical" name="LSORBIT"> F  </i>
    <v name="SAXIS">      0.00000000      0.00000000      1.00000000</v>
    <i type="logical" name="LSPIRAL"> F  </i>
    <v name="QSPIRAL">      0.00000000      0.00000000      0.00000000</v>
    <i type="logical" name="LZEROZ"> F  </i>
   </separator>
   <separator name="electronic exchange-correlation" >
    <i type="logical" name="LASPH"> T  </i>
    <i type="logical" name="LMETAGGA"> F  </i>
   </separator>
   <separator name="electronic convergence" >
    <i type="int" name="NELM">   200</i>
    <i type="int" name="NELMDL">    -5</i>
    <i type="int" name="NELMIN">     8</i>
    <i name="ENINI">   1000.00000000</i>
    <separator name="electronic convergence detail" >
     <i type="logical" name="LDIAG"> T  </i>
     <i type="logical" name="LSUBROT"> F  </i>
     <i name="WEIMIN">      0.00100000</i>
     <i name="EBREAK">      0.00000001</i>
     <i name="DEPER">      0.30000000</i>
     <i type="int" name="NRMM">     4</i>
     <i name="TIME">      0.40000000</i>
    </separator>
   </separator>
   <separator name="electronic mixer" >
    <i name="AMIX">      0.40000000</i>
    <i name="BMIX">      1.00000000</i>
    <i name="AMIN">      0.10000000</i>
    <i name="AMIX_MAG">      1.60000000</i>
    <i name="BMIX_MAG">      1.00000000</i>
    <separator name="electronic mixer details" >
     <i type="int" name="IMIX">     4</i>
     <i type="logical" name="MIXFIRST"> F  </i>
     <i type="int" name="MAXMIX">   -45</i>
     <i name="WC">    100.00000000</i>
     <i type="int" name="INIMIX">     1</i>
     <i type="int" name="MIXPRE">     1</i>
     <i type="int" name="MREMOVE">     5</i>
    </separator>
   </separator>
   <separator name="electronic dipolcorrection" >
    <i type="logical" name="LDIPOL"> F  </i>
    <i type="logical" name="LMONO"> F  </i>
    <i type="int" name="IDIPOL">     0</i>
    <i name="EPSILON">      1.00000000</i>
    <v name="DIPOL">   -100.00000000   -100.00000000   -100.00000000</v>
    <i name="EFIELD">      0.00000000</i>
   </separator>
  </separator>
  <separator name="grids" >
   <i type="int" name="NGX">   140</i>
   <i type="int" name="NGY">    70</i>
   <i type="int" name="NGZ">   140</i>
   <i type="int" name="NGXF">   280</i>
   <i type="int" name="NGYF">   140</i>
   <i type="int" name="NGZF">   280</i>
   <i type="logical" name="ADDGRID"> F  </i>
  </separator>
  <separator name="ionic" >
   <i type="int" name="NSW">  1000</i>
   <i type="int" name="IBRION">     2</i>
   <i type="int" name="MDALGO">     0</i>
   <i type="int" name="ISIF">     3</i>
   <i name="PSTRESS">      0.00000000</i>
   <i name="EDIFFG">     -0.01000000</i>
   <i type="int" name="NFREE">     1</i>
   <i name="POTIM">      0.50000000</i>
   <i name="SMASS">     -3.00000000</i>
   <i name="SCALEE">      1.00000000</i>
  </separator>
  <separator name="ionic md" >
   <i name="TEBEG">      0.00010000</i>
   <i name="TEEND">      0.00010000</i>
   <i type="int" name="NBLOCK">     1</i>
   <i type="int" name="KBLOCK">  1000</i>
   <i type="int" name="NPACO">   256</i>
   <i name="APACO">     10.00000000</i>
  </separator>
  <separator name="symmetry" >
   <i type="int" name="ISYM">     0</i>
   <i name="SYMPREC">      0.00001000</i>
  </separator>
  <separator name="dos" >
   <i type="int" name="LORBIT">     0</i>
   <v name="RWIGS">     -1.00000000     -1.00000000     -1.00000000     -1.00000000     -1.00000000</v>
   <i type="int" name="NEDOS">   301</i>
   <i name="EMIN">     10.00000000</i>
   <i name="EMAX">    -10.00000000</i>
   <i name="EFERMI">      0.00000000</i>
  </separator>
  <separator name="writing" >
   <i type="int" name="NWRITE">     2</i>
   <i type="logical" name="LWAVE"> F  </i>
   <i type="logical" name="LDOWNSAMPLE"> F  </i>
   <i type="logical" name="LCHARG"> F  </i>
   <i type="logical" name="LPARD"> F  </i>
   <i type="logical" name="LVTOT"> F  </i>
   <i type="logical" name="LVHAR"> F  </i>
   <i type="logical" name="LELF"> F  </i>
   <i type="logical" name="LOPTICS"> F  </i>
   <v name="STM">      0.00000000      0.00000000      0.00000000      0.00000000      0.00000000      0.00000000      0.00000000</v>
  </separator>
  <separator name="performance" >
   <i type="int" name="NPAR">     8</i>
   <i type="int" name="NSIM">     4</i>
   <i type="int" name="NBLK">    -1</i>
   <i type="logical" name="LPLANE"> T  </i>
   <i type="logical" name="LSCALAPACK"> T  </i>
   <i type="logical" name="LSCAAWARE"> F  </i>
   <i type="logical" name="LSCALU"> F  </i>
   <i type="logical" name="LASYNC"> F  </i>
   <i type="logical" name="LORBITALREAL"> F  </i>
  </separator>
  <separator name="miscellaneous" >
   <i type="int" name="IDIOT">     3</i>
   <i type="int" name="PHON_NSTRUCT">    -1</i>
   <i type="logical" name="LMUSIC"> F  </i>
   <v name="POMASS">     12.01100000      1.00000000    126.90400000     14.00100000    118.71000000</v>
   <v name="DARWINR">      0.00000000      0.00000000      0.00000000      0.00000000      0.00000000</v>
   <v name="DARWINV">      1.00000000      1.00000000      1.00000000      1.00000000      1.00000000</v>
   <i type="logical" name="LCORR"> T  </i>
  </separator>
  <i type="logical" name="GGA_COMPAT"> T  </i>
  <i type="logical" name="LBERRY"> F  </i>
  <i type="int" name="ICORELEVEL">     0</i>
  <i type="logical" name="LDAU"> F  </i>
  <i type="int" name="I_CONSTRAINED_M">     0</i>
  <separator name="electronic exchange-correlation" >
   <i type="string" name="GGA">MK</i>
   <i type="int" name="VOSKOWN">     0</i>
   <i type="logical" name="LHFCALC"> F  </i>
   <i type="string" name="PRECFOCK"></i>
   <i type="logical" name="LSYMGRAD"> F  </i>
   <i type="logical" name="LHFONE"> F  </i>
   <i type="logical" name="LRHFCALC"> F  </i>
   <i type="logical" name="LTHOMAS"> F  </i>
   <i type="logical" name="LMODELHF"> F  </i>
   <i type="logical" name="LFOCKACE"> F  </i>
   <i name="ENCUT4O">     -1.00000000</i>
   <i type="int" name="EXXOEP">     0</i>
   <i type="int" name="FOURORBIT">     0</i>
   <i name="AEXX">      0.00000000</i>
   <i name="HFALPHA">      0.00000000</i>
   <i name="MCALPHA">      0.00000000</i>
   <i name="ALDAX">      1.00000000</i>
   <i name="AGGAX">      1.00000000</i>
   <i name="ALDAC">      1.00000000</i>
   <i name="AGGAC">      0.00000000</i>
   <i type="int" name="NKREDX">     1</i>
   <i type="int" name="NKREDY">     1</i>
   <i type="int" name="NKREDZ">     1</i>
   <i type="logical" name="SHIFTRED"> F  </i>
   <i type="logical" name="ODDONLY"> F  </i>
   <i type="logical" name="EVENONLY"> F  </i>
   <i type="int" name="LMAXFOCK">     0</i>
   <i type="int" name="NMAXFOCKAE">     0</i>
   <i type="logical" name="LFOCKAEDFT"> F  </i>
   <i name="HFSCREEN">      0.00000000</i>
   <i name="HFSCREENC">      0.00000000</i>
   <i type="int" name="NBANDSGWLOW">     0</i>
  </separator>
  <separator name="vdW DFT" >
   <i type="logical" name="LUSE_VDW"> T  </i>
   <i name="Zab_VDW">     -0.84910000</i>
   <i name="PARAM1">      0.12340000</i>
   <i name="PARAM2">      1.00000000</i>
   <i name="PARAM3">      0.00000000</i>
  </separator>
  <separator name="model GW" >
   <i type="int" name="MODEL_GW">     0</i>
   <i name="MODEL_EPS0">     12.54645767</i>
   <i name="MODEL_ALPHA">      1.00000000</i>
  </separator>
  <separator name="linear response parameters" >
   <i type="logical" name="LEPSILON"> F  </i>
   <i type="logical" name="LRPA"> F  </i>
   <i type="logical" name="LNABLA"> F  </i>
   <i type="logical" name="LVEL"> F  </i>
   <i name="CSHIFT">      0.10000000</i>
   <i name="OMEGAMAX">     -1.00000000</i>
   <i name="DEG_THRESHOLD">      0.00200000</i>
   <i name="RTIME">     -0.10000000</i>
   <i name="WPLASMAI">      0.00000000</i>
   <v name="DFIELD">      0.00000000      0.00000000      0.00000000</v>
   <v name="WPLASMA">      0.00000000      0.00000000      0.00000000      0.00000000      0.00000000      0.00000000      0.00000000      0.00000000      0.00000000</v>
  </separator>
  <separator name="orbital magnetization" >
   <i type="logical" name="NUCIND"> F  </i>
   <v name="MAGPOS">      0.00000000      0.00000000      0.00000000</v>
   <i type="logical" name="LNICSALL"> T  </i>
   <i type="logical" name="ORBITALMAG"> F  </i>
   <i type="logical" name="LMAGBLOCH"> F  </i>
   <i type="logical" name="LCHIMAG"> F  </i>
   <i type="logical" name="LGAUGE"> T  </i>
   <i type="int" name="MAGATOM">     0</i>
   <v name="MAGDIPOL">      0.00000000      0.00000000      0.00000000</v>
   <v name="AVECCONST">      0.00000000      0.00000000      0.00000000</v>
  </separator>
  <separator name="response functions" >
   <i type="logical" name="LFINITE_TEMPERATURE"> F  </i>
   <i type="logical" name="LADDER"> F  </i>
   <i type="logical" name="LRPAFORCE"> F  </i>
   <i type="logical" name="LFXC"> F  </i>
   <i type="logical" name="LHARTREE"> T  </i>
   <i type="int" name="IBSE">     0</i>
   <v type="int" name="KPOINT">    -1     0     0     0</v>
   <i type="logical" name="LTCTC"> F  </i>
   <i type="logical" name="LTCTE"> F  </i>
   <i type="logical" name="LTETE"> F  </i>
   <i type="logical" name="LTRIPLET"> F  </i>
   <i type="logical" name="LFXCEPS"> F  </i>
   <i type="logical" name="LFXHEG"> F  </i>
   <i type="int" name="NATURALO">     2</i>
   <i type="logical" name="LHOLEGF"> F  </i>
   <i type="logical" name="L2ORDER"> F  </i>
   <i type="logical" name="LDMP1"> F  </i>
   <i type="logical" name="LMP2LT"> F  </i>
   <i type="logical" name="LSMP2LT"> F  </i>
   <i type="logical" name="LGWLF"> F  </i>
   <i name="ENCUTGW">     -2.00000000</i>
   <i name="ENCUTGWSOFT">     -2.00000000</i>
   <i name="ENCUTLF">     -1.00000000</i>
   <i type="logical" name="LESF_SPLINES"> F  </i>
   <i type="int" name="LMAXMP2">    -1</i>
   <i name="SCISSOR">      0.00000000</i>
   <i type="int" name="NOMEGA">     0</i>
   <i type="int" name="NOMEGAR">     0</i>
   <i type="int" name="NBANDSGW">    -1</i>
   <i type="int" name="NBANDSO">    -1</i>
   <i type="int" name="NBANDSV">    -1</i>
   <i type="int" name="NELMGW">     1</i>
   <i type="int" name="NELMHF">     1</i>
   <i type="int" name="DIM">     3</i>
   <i type="int" name="IESPILON">     4</i>
   <i type="int" name="ANTIRES">     0</i>
   <i name="OMEGAMAX">    -30.00000000</i>
   <i name="OMEGAMIN">    -30.00000000</i>
   <i name="OMEGATL">   -200.00000000</i>
   <i type="int" name="OMEGAGRID">     0</i>
   <i name="CSHIFT">     -0.10000000</i>
   <i type="logical" name="LSELFENERGY"> F  </i>
   <i type="logical" name="LSPECTRAL"> F  </i>
   <i type="logical" name="LSPECTRALGW"> F  </i>
   <i type="logical" name="LSINGLES"> F  </i>
   <i type="logical" name="LFERMIGW"> F  </i>
   <i type="logical" name="ODDONLYGW"> F  </i>
   <i type="logical" name="EVENONLYGW"> F  </i>
   <i type="int" name="NKREDLFX">     1</i>
   <i type="int" name="NKREDLFY">     1</i>
   <i type="int" name="NKREDLFZ">     1</i>
   <i type="int" name="MAXMEM">  2800</i>
   <i type="int" name="TELESCOPE">     0</i>
   <i type="int" name="NTAUPAR">    -1</i>
   <i type="int" name="NOMEGAPAR">    -1</i>
   <i name="DAMP_NEWTON">      0.80000001</i>
   <i name="LAMBDA">      1.00000000</i>
  </separator>
  <separator name="External order field" >
   <i name="OFIELD_KAPPA">      0.00000000</i>
   <v name="OFIELD_K">      0.00000000      0.00000000      0.00000000</v>
   <i name="OFIELD_Q6_NEAR">      0.00000000</i>
   <i name="OFIELD_Q6_FAR">      0.00000000</i>
   <i name="OFIELD_A">      0.00000000</i>
  </separator>
  <separator name="optional k-points parameters" >
   <i type="int" name="KPOINTS_OPT_MODE">     1</i>
   <i type="logical" name="LKPOINTS_OPT"> F  </i>
  </separator>
 </parameters>
 <atominfo>
  <atoms>      48 </atoms>
  <types>       5 </types>
  <array name="atoms" >
   <dimension dim="1">ion</dimension>
   <field type="string">element</field>
   <field type="int">atomtype</field>
   <set>
    <rc><c>C </c><c>   1</c></rc>
    <rc><c>C </c><c>   1</c></rc>
    <rc><c>C </c><c>   1</c></rc>
    <rc><c>C </c><c>   1</c></rc>
    <rc><c>H </c><c>   2</c></rc>
    <rc><c>H </c><c>   2</c></rc>
    <rc><c>H </c><c>   2</c></rc>
    <rc><c>H </c><c>   2</c></rc>
    <rc><c>H </c><c>   2</c></rc>
    <rc><c>H </c><c>   2</c></rc>
    <rc><c>H </c><c>   2</c></rc>
    <rc><c>H </c><c>   2</c></rc>
    <rc><c>H </c><c>   2</c></rc>
    <rc><c>H </c><c>   2</c></rc>
    <rc><c>H </c><c>   2</c></rc>
    <rc><c>H </c><c>   2</c></rc>
    <rc><c>H </c><c>   2</c></rc>
    <rc><c>H </c><c>   2</c></rc>
    <rc><c>H </c><c>   2</c></rc>
    <rc><c>H </c><c>   2</c></rc>
    <rc><c>H </c><c>   2</c></rc>
    <rc><c>H </c><c>   2</c></rc>
    <rc><c>H </c><c>   2</c></rc>
    <rc><c>H </c><c>   2</c></rc>
    <rc><c>I </c><c>   3</c></rc>
    <rc><c>I </c><c>   3</c></rc>
    <rc><c>I </c><c>   3</c></rc>
    <rc><c>I </c><c>   3</c></rc>
    <rc><c>I </c><c>   3</c></rc>
    <rc><c>I </c><c>   3</c></rc>
    <rc><c>I </c><c>   3</c></rc>
    <rc><c>I </c><c>   3</c></rc>
    <rc><c>I </c><c>   3</c></rc>
    <rc><c>I </c><c>   3</c></rc>
    <rc><c>I </c><c>   3</c></rc>
    <rc><c>I </c><c>   3</c></rc>
    <rc><c>N </c><c>   4</c></rc>
    <rc><c>N </c><c>   4</c></rc>
    <rc><c>N </c><c>   4</c></rc>
    <rc><c>N </c><c>   4</c></rc>
    <rc><c>N </c><c>   4</c></rc>
    <rc><c>N </c><c>   4</c></rc>
    <rc><c>N </c><c>   4</c></rc>
    <rc><c>N </c><c>   4</c></rc>
    <rc><c>Sn</c><c>   5</c></rc>
    <rc><c>Sn</c><c>   5</c></rc>
    <rc><c>Sn</c><c>   5</c></rc>
    <rc><c>Sn</c><c>   5</c></rc>
   </set>
  </array>
  <array name="atomtypes" >
   <dimension dim="1">type</dimension>
   <field type="int">atomspertype</field>
   <field type="string">element</field>
   <field>mass</field>
   <field>valence</field>
   <field type="string">pseudopotential</field>
   <set>
    <rc><c>   4</c><c>C </c><c>     12.01100000</c><c>      4.00000000</c><c>  PAW_PBE C 08Apr2002                   </c></rc>
    <rc><c>  20</c><c>H </c><c>      1.00000000</c><c>      1.00000000</c><c>  PAW_PBE H 15Jun2001                   </c></rc>
    <rc><c>  12</c><c>I </c><c>    126.90400000</c><c>      7.00000000</c><c>  PAW_PBE I 08Apr2002                   </c></rc>
    <rc><c>   8</c><c>N </c><c>     14.00100000</c><c>      5.00000000</c><c>  PAW_PBE N 08Apr2002                   </c></rc>
    <rc><c>   4</c><c>Sn</c><c>    118.71000000</c><c>      4.00000000</c><c>  PAW_PBE Sn 08Apr2002                  </c></rc>
   </set>
  </array>
 </atominfo>
 <structure name="initialpos" >
  <crystal>
   <varray name="basis" >
    <v>      12.61480000       0.00000000       0.00000000 </v>
    <v>       0.00000000       6.30740000       0.00000000 </v>
    <v>       0.00000000       0.00000000      12.61480000 </v>
   </varray>
   <i name="volume">   1003.71661348 </i>
   <varray name="rec_basis" >
    <v>       0.07927197       0.00000000       0.00000000 </v>
    <v>       0.00000000       0.15854393       0.00000000 </v>
    <v>       0.00000000       0.00000000       0.07927197 </v>
   </varray>
  </crystal>
  <varray name="positions" >
   <v>       0.47334637       0.05432168       0.99921489 </v>
   <v>       0.47334637       0.05432168       0.49921489 </v>
   <v>       0.97334637       0.05432168       0.99921489 </v>
   <v>       0.97334637       0.05432168       0.49921489 </v>
   <v>       0.03449846       0.81080160       0.41236526 </v>
   <v>       0.09427120       0.93491789       0.08834172 </v>
   <v>       0.02676246       0.14954103       0.14159976 </v>
   <v>       0.42733419       0.94334886       0.35717950 </v>
   <v>       0.41226295       0.17605697       0.99841312 </v>
   <v>       0.03449846       0.81080160       0.91236526 </v>
   <v>       0.09427120       0.93491789       0.58834172 </v>
   <v>       0.02676246       0.14954103       0.64159976 </v>
   <v>       0.42733419       0.94334886       0.85717950 </v>
   <v>       0.41226295       0.17605697       0.49841312 </v>
   <v>       0.53449846       0.81080160       0.41236526 </v>
   <v>       0.59427120       0.93491789       0.08834172 </v>
   <v>       0.52676246       0.14954103       0.14159976 </v>
   <v>       0.92733419       0.94334886       0.35717950 </v>
   <v>       0.91226295       0.17605697       0.99841312 </v>
   <v>       0.53449846       0.81080160       0.91236526 </v>
   <v>       0.59427120       0.93491789       0.58834172 </v>
   <v>       0.52676246       0.14954103       0.64159976 </v>
   <v>       0.92733419       0.94334886       0.85717950 </v>
   <v>       0.91226295       0.17605697       0.49841312 </v>
   <v>       0.00000000       0.50000000       0.25000000 </v>
   <v>       0.25000000       0.00000000       0.25000000 </v>
   <v>       0.25000000       0.50000000       0.00000000 </v>
   <v>       0.00000000       0.50000000       0.75000000 </v>
   <v>       0.25000000       0.00000000       0.75000000 </v>
   <v>       0.25000000       0.50000000       0.50000000 </v>
   <v>       0.50000000       0.50000000       0.25000000 </v>
   <v>       0.75000000       0.00000000       0.25000000 </v>
   <v>       0.75000000       0.50000000       0.00000000 </v>
   <v>       0.50000000       0.50000000       0.75000000 </v>
   <v>       0.75000000       0.00000000       0.75000000 </v>
   <v>       0.75000000       0.50000000       0.50000000 </v>
   <v>       0.03436811       0.04122229       0.08251666 </v>
   <v>       0.48104404       0.93023118       0.41678077 </v>
   <v>       0.03436811       0.04122229       0.58251666 </v>
   <v>       0.48104404       0.93023118       0.91678077 </v>
   <v>       0.53436811       0.04122229       0.08251666 </v>
   <v>       0.98104404       0.93023118       0.41678077 </v>
   <v>       0.53436811       0.04122229       0.58251666 </v>
   <v>       0.98104404       0.93023118       0.91678077 </v>
   <v>       0.25000000       0.50000000       0.25000000 </v>
   <v>       0.25000000       0.50000000       0.75000000 </v>
   <v>       0.75000000       0.50000000       0.25000000 </v>
   <v>       0.75000000       0.50000000       0.75000000 </v>
  </varray>
 </structure>
 <calculation>
  <scstep>
   <time name="total">26111.2526114.63</time>
   <energy>
    <i name="alphaZ">    115.11870695 </i>
    <i name="ewald">  -4568.20492892 </i>
    <i name="hartreedc">  -2144.49036289 </i>
    <i name="XCdc">   -374.72241482 </i>
    <i name="pawpsdc">   6161.33813817 </i>
    <i name="pawaedc">  -5338.05185836 </i>
    <i name="eentropy">     -0.01553073 </i>
    <i name="bandstr">    403.32150195 </i>
    <i name="atom">   7160.47832104 </i>
    <i name="e_fr_energy">   1414.77157240 </i>
    <i name="e_wo_entrp">   1414.78710313 </i>
    <i name="e_0_energy">   1414.77933777 </i>
   </energy>
  </scstep>
  <scstep>
   <time name="total">   10.71   10.72</time>
   <energy>
    <i name="e_fr_energy">     16.95757777 </i>
    <i name="e_wo_entrp">     16.95954426 </i>
    <i name="e_0_energy">     16.95856102 </i>
   </energy>
  </scstep>
  <scstep>
   <time name="total">   10.65   10.66</time>
   <energy>
    <i name="e_fr_energy">   -178.36878908 </i>
    <i name="e_wo_entrp">   -178.36877962 </i>
    <i name="e_0_energy">   -178.36878435 </i>
   </energy>
  </scstep>
  <scstep>
   <time name="total">   10.12   10.14</time>
   <energy>
    <i name="e_fr_energy">   -184.45005336 </i>
    <i name="e_wo_entrp">   -184.45000219 </i>
    <i name="e_0_energy">   -184.45002777 </i>
   </energy>
  </scstep>
  <scstep>
   <time name="total">   12.17   12.18</time>
   <energy>
    <i name="e_fr_energy">   -184.63021953 </i>
    <i name="e_wo_entrp">   -184.63015690 </i>
    <i name="e_0_energy">   -184.63018822 </i>
   </energy>
  </scstep>
  <scstep>
   <time name="total">   15.99   16.01</time>
   <energy>
    <i name="e_fr_energy">   -153.83099314 </i>
    <i name="e_wo_entrp">   -153.83099314 </i>
    <i name="e_0_energy">   -153.83099314 </i>
   </energy>
  </scstep>
  <scstep>
   <time name="total">   15.96   15.96</time>
   <energy>
    <i name="e_fr_energy">   -168.45859120 </i>
    <i name="e_wo_entrp">   -168.45859120 </i>
    <i name="e_0_energy">   -168.45859120 </i>
   </energy>
  </scstep>
  <scstep>
   <time name="total">   15.94   15.96</time>
   <energy>
    <i name="e_fr_energy">   -170.12636650 </i>
    <i name="e_wo_entrp">   -170.12636650 </i>
    <i name="e_0_energy">   -170.12636650 </i>
   </energy>
  </scstep>
  <scstep>
   <time name="total">   15.93   15.94</time>
   <energy>
    <i name="e_fr_energy">   -170.63484261 </i>
    <i name="e_wo_entrp">   -170.63484261 </i>
    <i name="e_0_energy">   -170.63484261 </i>
   </energy>
  </scstep>
  <scstep>
   <time name="total">   15.94   15.95</time>
   <energy>
    <i name="e_fr_energy">   -170.79448672 </i>
    <i name="e_wo_entrp">   -170.79448672 </i>
    <i name="e_0_energy">   -170.79448672 </i>
   </energy>
  </scstep>
  <scstep>
   <time name="total">   15.95   15.96</time>
   <energy>
    <i name="e_fr_energy">   -170.84551928 </i>
    <i name="e_wo_entrp">   -170.84551928 </i>
    <i name="e_0_energy">   -170.84551928 </i>
   </energy>
  </scstep>
  <scstep>
   <time name="total">   15.94   15.96</time>
   <energy>
    <i name="e_fr_energy">   -170.85745669 </i>
    <i name="e_wo_entrp">   -170.85745669 </i>
    <i name="e_0_energy">   -170.85745669 </i>
   </energy>
  </scstep>
  <scstep>
   <time name="total">   15.93   15.95</time>
   <energy>
    <i name="e_fr_energy">   -170.86021854 </i>
    <i name="e_wo_entrp">   -170.86021854 </i>
    <i name="e_0_energy">   -170.86021854 </i>
   </energy>
  </scstep>
  <scstep>
   <time name="total">   15.94   15.96</time>
   <energy>
    <i name="e_fr_energy">   -170.86086225 </i>
    <i name="e_wo_entrp">   -170.86086225 </i>
    <i name="e_0_energy">   -170.86086225 </i>
   </energy>
  </scstep>
  <scstep>
   <time name="total">   15.95   15.98</time>
   <energy>
    <i name="e_fr_energy">   -170.86101307 </i>
    <i name="e_wo_entrp">   -170.86101307 </i>
    <i name="e_0_energy">   -170.86101307 </i>
   </energy>
  </scstep>
  <scstep>
   <time name="total">   15.95   15.96</time>
   <energy>
    <i name="e_fr_energy">   -170.86105027 </i>
    <i name="e_wo_entrp">   -170.86105027 </i>
    <i name="e_0_energy">   -170.86105027 </i>
   </energy>
  </scstep>
  <scstep>
   <time name="total">   15.94   15.96</time>
   <energy>
    <i name="e_fr_energy">   -170.86105915 </i>
    <i name="e_wo_entrp">   -170.86105915 </i>
    <i name="e_0_energy">   -170.86105915 </i>
   </energy>
  </scstep>
  <scstep>
   <time name="total">   17.50   17.52</time>
   <energy>
    <i name="alphaZ">    115.11870695 </i>
    <i name="ewald">  -4568.20492892 </i>
    <i name="hartreedc">  -2371.04273608 </i>
    <i name="XCdc">   -357.97994299 </i>
    <i name="pawpsdc">  11896.49717354 </i>
    <i name="pawaedc"> -11077.89978589 </i>
    <i name="eentropy">     -0.00000000 </i>
    <i name="bandstr">   -967.82786892 </i>
    <i name="atom">   7160.47832104 </i>
    <i name="e_fr_energy">   -170.86106128 </i>
    <i name="e_wo_entrp">   -170.86106128 </i>
    <i name="e_0_energy">   -170.86106128 </i>
   </energy>
  </scstep>
  <structure>
   <crystal>
    <varray name="basis" >
     <v>      12.61480000       0.00000000       0.00000000 </v>
     <v>       0.00000000       6.30740000       0.00000000 </v>
     <v>       0.00000000       0.00000000      12.61480000 </v>
    </varray>
    <i name="volume">   1003.71661348 </i>
    <varray name="rec_basis" >
     <v>       0.07927197       0.00000000       0.00000000 </v>
     <v>       0.00000000       0.15854393       0.00000000 </v>
     <v>       0.00000000       0.00000000       0.07927197 </v>
    </varray>
   </crystal>
   <varray name="positions" >
    <v>       0.47334637       0.05432168       0.99921489 </v>
    <v>       0.47334637       0.05432168       0.49921489 </v>
    <v>       0.97334637       0.05432168       0.99921489 </v>
    <v>       0.97334637       0.05432168       0.49921489 </v>
    <v>       0.03449846       0.81080160       0.41236526 </v>
    <v>       0.09427120       0.93491789       0.08834172 </v>
    <v>       0.02676246       0.14954103       0.14159976 </v>
    <v>       0.42733419       0.94334886       0.35717950 </v>
    <v>       0.41226295       0.17605697       0.99841312 </v>
    <v>       0.03449846       0.81080160       0.91236526 </v>
    <v>       0.09427120       0.93491789       0.58834172 </v>
    <v>       0.02676246       0.14954103       0.64159976 </v>
    <v>       0.42733419       0.94334886       0.85717950 </v>
    <v>       0.41226295       0.17605697       0.49841312 </v>
    <v>       0.53449846       0.81080160       0.41236526 </v>
    <v>       0.59427120       0.93491789       0.08834172 </v>
    <v>       0.52676246       0.14954103       0.14159976 </v>
    <v>       0.92733419       0.94334886       0.35717950 </v>
    <v>       0.91226295       0.17605697       0.99841312 </v>
    <v>       0.53449846       0.81080160       0.91236526 </v>
    <v>       0.59427120       0.93491789       0.58834172 </v>
    <v>       0.52676246       0.14954103       0.64159976 </v>
    <v>       0.92733419       0.94334886       0.85717950 </v>
    <v>       0.91226295       0.17605697       0.49841312 </v>
    <v>       0.00000000       0.50000000       0.25000000 </v>
    <v>       0.25000000       0.00000000       0.25000000 </v>
    <v>       0.25000000       0.50000000       0.00000000 </v>
    <v>       0.00000000       0.50000000       0.75000000 </v>
    <v>       0.25000000       0.00000000       0.75000000 </v>
    <v>       0.25000000       0.50000000       0.50000000 </v>
    <v>       0.50000000       0.50000000       0.25000000 </v>
    <v>       0.75000000       0.00000000       0.25000000 </v>
    <v>       0.75000000       0.50000000       0.00000000 </v>
    <v>       0.50000000       0.50000000       0.75000000 </v>
    <v>       0.75000000       0.00000000       0.75000000 </v>
    <v>       0.75000000       0.50000000       0.50000000 </v>
    <v>       0.03436811       0.04122229       0.08251666 </v>
    <v>       0.48104404       0.93023118       0.41678077 </v>
    <v>       0.03436811       0.04122229       0.58251666 </v>
    <v>       0.48104404       0.93023118       0.91678077 </v>
    <v>       0.53436811       0.04122229       0.08251666 </v>
    <v>       0.98104404       0.93023118       0.41678077 </v>
    <v>       0.53436811       0.04122229       0.58251666 </v>
    <v>       0.98104404       0.93023118       0.91678077 </v>
    <v>       0.25000000       0.50000000       0.25000000 </v>
    <v>       0.25000000       0.50000000       0.75000000 </v>
    <v>       0.75000000       0.50000000       0.25000000 </v>
    <v>       0.75000000       0.50000000       0.75000000 </v>
   </varray>
  </structure>
  <varray name="forces" >
   <v>      -0.05185505       0.04807297       0.00782327 </v>
   <v>      -0.05179358       0.04813066       0.00807152 </v>
   <v>      -0.05187718       0.04806398       0.00779266 </v>
   <v>      -0.05180980       0.04813861       0.00806940 </v>
   <v>       0.27367370      -0.32375433      -0.04605001 </v>
   <v>       0.31316009      -0.26643566       0.04869628 </v>
   <v>      -0.03220780       0.28588944       0.32029512 </v>
   <v>      -0.27274479       0.02733260      -0.32522509 </v>
   <v>      -0.22914264       0.22878304       0.00397373 </v>
   <v>       0.27361566      -0.32369329      -0.04606744 </v>
   <v>       0.31310599      -0.26638279       0.04871093 </v>
   <v>      -0.03220179       0.28583789       0.32024905 </v>
   <v>      -0.27269141       0.02732824      -0.32518644 </v>
   <v>      -0.22914158       0.22878840       0.00400380 </v>
   <v>       0.27367123      -0.32375523      -0.04605043 </v>
   <v>       0.31314942      -0.26642978       0.04870180 </v>
   <v>      -0.03220800       0.28588379       0.32028957 </v>
   <v>      -0.27274622       0.02733378      -0.32522364 </v>
   <v>      -0.22914819       0.22878026       0.00397220 </v>
   <v>       0.27362132      -0.32369671      -0.04606882 </v>
   <v>       0.31310237      -0.26638046       0.04871331 </v>
   <v>      -0.03220160       0.28583794       0.32024604 </v>
   <v>      -0.27268756       0.02732590      -0.32517544 </v>
   <v>      -0.22914316       0.22878579       0.00400406 </v>
   <v>       0.00811361      -0.09646974      -0.07589683 </v>
   <v>       0.10050882      -0.01082519       0.07577798 </v>
   <v>      -0.11089454       0.11246056      -0.00127651 </v>
   <v>       0.00810423      -0.09647121      -0.07594954 </v>
   <v>       0.10050679      -0.01081671       0.07571575 </v>
   <v>      -0.11089762       0.11245206      -0.00111095 </v>
   <v>       0.00811217      -0.09647242      -0.07589018 </v>
   <v>       0.10037691      -0.01082119       0.07577687 </v>
   <v>      -0.11101701       0.11246019      -0.00128211 </v>
   <v>       0.00810481      -0.09647191      -0.07596030 </v>
   <v>       0.10039000      -0.01081946       0.07572162 </v>
   <v>      -0.11103278       0.11244757      -0.00110922 </v>
   <v>      -0.02874489      -0.03305746      -0.01172041 </v>
   <v>       0.02097209       0.03722734       0.00378345 </v>
   <v>      -0.02874076      -0.03303331      -0.01158897 </v>
   <v>       0.02096331       0.03723931       0.00364014 </v>
   <v>      -0.02875529      -0.03304734      -0.01170067 </v>
   <v>       0.02096313       0.03723700       0.00379226 </v>
   <v>      -0.02875014      -0.03300993      -0.01157936 </v>
   <v>       0.02094239       0.03723213       0.00363622 </v>
   <v>       0.00934583      -0.00930393      -0.00032284 </v>
   <v>       0.00934569      -0.00930752      -0.00034994 </v>
   <v>       0.00928872      -0.00930668      -0.00032400 </v>
   <v>       0.00929513      -0.00930719      -0.00034790 </v>
  </varray>
  <varray name="stress" >
   <v>       7.72552490      -5.09728913       7.32868560 </v>
   <v>      -5.09728852       8.14279518       7.85819803 </v>
   <v>       7.32868573       7.85819828      11.01235086 </v>
  </varray>
  <energy>
   <i name="e_fr_energy">   -170.86106128 </i>
   <i name="e_wo_entrp">   -170.86106128 </i>
   <i name="e_0_energy">   -170.86106128 </i>
  </energy>
  <time name="totalsc">26389.8026393.44</time>
 </calculation>
 <calculation>
  <scstep>
   <time name="total">   15.98   15.99</time>
   <energy>
    <i name="alphaZ">    113.19852672 </i>
    <i name="ewald">  -4592.53707389 </i>
    <i name="hartreedc">  -2348.76156992 </i>
    <i name="XCdc">   -359.96623966 </i>
    <i name="pawpsdc">  12193.58625800 </i>
    <i name="pawaedc"> -11374.41985089 </i>
    <i name="eentropy">     -0.00000000 </i>
    <i name="bandstr">   -961.46916415 </i>
    <i name="atom">   7160.47832104 </i>
    <i name="e_fr_energy">   -169.89079274 </i>
    <i name="e_wo_entrp">   -169.89079274 </i>
    <i name="e_0_energy">   -169.89079274 </i>
   </energy>
  </scstep>
  <scstep>
   <time name="total">   15.94   15.96</time>
   <energy>
    <i name="e_fr_energy">   -170.62474855 </i>
    <i name="e_wo_entrp">   -170.62474855 </i>
    <i name="e_0_energy">   -170.62474855 </i>
   </energy>
  </scstep>
  <scstep>
   <time name="total">   15.94   15.96</time>
   <energy>
    <i name="e_fr_energy">   -170.78541081 </i>
    <i name="e_wo_entrp">   -170.78541081 </i>
    <i name="e_0_energy">   -170.78541081 </i>
   </energy>
  </scstep>
  <scstep>
   <time name="total">   15.95   15.97</time>
   <energy>
    <i name="e_fr_energy">   -170.82171903 </i>
    <i name="e_wo_entrp">   -170.82171903 </i>
    <i name="e_0_energy">   -170.82171903 </i>
   </energy>
  </scstep>
  <scstep>
   <time name="total">   15.96   15.97</time>
   <energy>
    <i name="e_fr_energy">   -170.82834597 </i>
    <i name="e_wo_entrp">   -170.82834597 </i>
    <i name="e_0_energy">   -170.82834597 </i>
   </energy>
  </scstep>
  <scstep>
   <time name="total">   15.94   15.95</time>
   <energy>
    <i name="e_fr_energy">   -170.83034429 </i>
    <i name="e_wo_entrp">   -170.83034429 </i>
    <i name="e_0_energy">   -170.83034429 </i>
   </energy>
  </scstep>
  <scstep>
   <time name="total">   15.96   15.96</time>
   <energy>
    <i name="e_fr_energy">   -170.83100615 </i>
    <i name="e_wo_entrp">   -170.83100615 </i>
    <i name="e_0_energy">   -170.83100615 </i>
   </energy>
  </scstep>
  <scstep>
   <time name="total">   15.94   15.95</time>
   <energy>
    <i name="e_fr_energy">   -170.83117809 </i>
    <i name="e_wo_entrp">   -170.83117809 </i>
    <i name="e_0_energy">   -170.83117809 </i>
   </energy>
  </scstep>
  <scstep>
   <time name="total">   15.94   15.95</time>
   <energy>
    <i name="e_fr_energy">   -170.83121703 </i>
    <i name="e_wo_entrp">   -170.83121703 </i>
    <i name="e_0_energy">   -170.83121703 </i>
   </energy>
  </scstep>
  <scstep>
   <time name="total">   15.95   15.96</time>
   <energy>
    <i name="e_fr_energy">   -170.83122620 </i>
    <i name="e_wo_entrp">   -170.83122620 </i>
    <i name="e_0_energy">   -170.83122620 </i>
   </energy>
  </scstep>
  <scstep>
   <time name="total">   17.50   17.51</time>
   <energy>
    <i name="alphaZ">    113.19852672 </i>
    <i name="ewald">  -4592.53707389 </i>
    <i name="hartreedc">  -2341.77208907 </i>
    <i name="XCdc">   -360.75520960 </i>
    <i name="pawpsdc">  11493.46887449 </i>
    <i name="pawaedc"> -10674.55319088 </i>
    <i name="eentropy">     -0.00000000 </i>
    <i name="bandstr">   -968.35938738 </i>
    <i name="atom">   7160.47832104 </i>
    <i name="e_fr_energy">   -170.83122857 </i>
    <i name="e_wo_entrp">   -170.83122857 </i>
    <i name="e_0_energy">   -170.83122857 </i>
   </energy>
  </scstep>
  <structure>
   <crystal>
    <varray name="basis" >
     <v>      12.67616191      -0.04048649       0.05820991 </v>
     <v>      -0.02024324       6.33973809       0.03120785 </v>
     <v>       0.05820991       0.06241570      12.70226834 </v>
    </varray>
    <i name="volume">   1020.74260186 </i>
    <varray name="rec_basis" >
     <v>       0.07889071       0.00025369      -0.00036277 </v>
     <v>       0.00050738       0.15774067      -0.00077742 </v>
     <v>      -0.00036277      -0.00038871       0.07872967 </v>
    </varray>
   </crystal>
   <varray name="positions" >
    <v>       0.47314807       0.05468937       0.99924481 </v>
    <v>       0.47314830       0.05468981       0.49924576 </v>
    <v>       0.97314798       0.05468930       0.99924469 </v>
    <v>       0.97314824       0.05468987       0.49924575 </v>
    <v>       0.03554507       0.80832534       0.41218916 </v>
    <v>       0.09546881       0.93288003       0.08852795 </v>
    <v>       0.02663929       0.15172768       0.14282466 </v>
    <v>       0.42629113       0.94355792       0.35593574 </v>
    <v>       0.41138664       0.17780683       0.99842832 </v>
    <v>       0.03554484       0.80832581       0.91218909 </v>
    <v>       0.09546861       0.93288044       0.58852801 </v>
    <v>       0.02663931       0.15172728       0.64282449 </v>
    <v>       0.42629134       0.94355788       0.85593589 </v>
    <v>       0.41138665       0.17780687       0.49842843 </v>
    <v>       0.53554506       0.80832534       0.41218915 </v>
    <v>       0.59546877       0.93288008       0.08852797 </v>
    <v>       0.52663928       0.15172763       0.14282464 </v>
    <v>       0.92629113       0.94355793       0.35593575 </v>
    <v>       0.91138662       0.17780681       0.99842831 </v>
    <v>       0.53554487       0.80832578       0.91218908 </v>
    <v>       0.59546859       0.93288046       0.58852802 </v>
    <v>       0.52663931       0.15172728       0.64282448 </v>
    <v>       0.92629135       0.94355787       0.85593593 </v>
    <v>       0.91138664       0.17780685       0.49842843 </v>
    <v>       0.00003103       0.49926214       0.24970975 </v>
    <v>       0.25038437      -0.00008280       0.25028980 </v>
    <v>       0.24957591       0.50086016      -0.00000488 </v>
    <v>       0.00003099       0.49926213       0.74970955 </v>
    <v>       0.25038437      -0.00008273       0.75028956 </v>
    <v>       0.24957590       0.50086010       0.49999575 </v>
    <v>       0.50003102       0.49926212       0.24970977 </v>
    <v>       0.75038387      -0.00008277       0.25028979 </v>
    <v>       0.74957544       0.50086016      -0.00000490 </v>
    <v>       0.50003100       0.49926213       0.74970951 </v>
    <v>       0.75038392      -0.00008275       0.75028958 </v>
    <v>       0.74957538       0.50086006       0.49999576 </v>
    <v>       0.03425818       0.04096945       0.08247184 </v>
    <v>       0.48112425       0.93051591       0.41679523 </v>
    <v>       0.03425820       0.04096963       0.58247234 </v>
    <v>       0.48112421       0.93051601       0.91679469 </v>
    <v>       0.53425814       0.04096953       0.08247191 </v>
    <v>       0.98112421       0.93051599       0.41679527 </v>
    <v>       0.53425816       0.04096981       0.58247238 </v>
    <v>       0.98112413       0.93051595       0.91679467 </v>
    <v>       0.25003574       0.49992884       0.24999877 </v>
    <v>       0.25003574       0.49992881       0.74999866 </v>
    <v>       0.75003552       0.49992882       0.24999876 </v>
    <v>       0.75003555       0.49992881       0.74999867 </v>
   </varray>
  </structure>
  <varray name="forces" >
   <v>       0.06151380      -0.09093127      -0.03663408 </v>
   <v>       0.06131050      -0.09109957      -0.03718233 </v>
   <v>       0.06156849      -0.09091503      -0.03654616 </v>
   <v>       0.06135364      -0.09112324      -0.03714794 </v>
   <v>      -0.49945324       0.55807183       0.05303482 </v>
   <v>      -0.53106702       0.47058267      -0.06281746 </v>
   <v>       0.06443189      -0.51578472      -0.60337898 </v>
   <v>       0.48903252      -0.04388282       0.58077286 </v>
   <v>       0.24766432      -0.24849986       0.00876767 </v>
   <v>      -0.49937901       0.55797141       0.05298608 </v>
   <v>      -0.53097704       0.47051657      -0.06277202 </v>
   <v>       0.06443934      -0.51561512      -0.60313633 </v>
   <v>       0.48886140      -0.04388851       0.58053219 </v>
   <v>       0.24769138      -0.24848844       0.00882895 </v>
   <v>      -0.49943894       0.55805609       0.05303211 </v>
   <v>      -0.53107113       0.47059113      -0.06281034 </v>
   <v>       0.06442863      -0.51575980      -0.60334503 </v>
   <v>       0.48903103      -0.04388311       0.58077129 </v>
   <v>       0.24765564      -0.24849409       0.00876126 </v>
   <v>      -0.49937079       0.55796692       0.05299162 </v>
   <v>      -0.53100045       0.47054204      -0.06277064 </v>
   <v>       0.06443134      -0.51558728      -0.60311475 </v>
   <v>       0.48884025      -0.04389038       0.58050045 </v>
   <v>       0.24767203      -0.24846775       0.00883309 </v>
   <v>       0.01513932      -0.09731584      -0.06960370 </v>
   <v>       0.09933573      -0.01750108       0.06731999 </v>
   <v>      -0.09919273       0.10041978      -0.00139709 </v>
   <v>       0.01514501      -0.09731296      -0.06959587 </v>
   <v>       0.09931861      -0.01749967       0.06733257 </v>
   <v>      -0.09918744       0.10042217      -0.00138973 </v>
   <v>       0.01514375      -0.09731987      -0.06959533 </v>
   <v>       0.09935194      -0.01750259       0.06732925 </v>
   <v>      -0.09916258       0.10042388      -0.00138993 </v>
   <v>       0.01513834      -0.09731171      -0.06960480 </v>
   <v>       0.09935719      -0.01750151       0.06732782 </v>
   <v>      -0.09917498       0.10042285      -0.00139499 </v>
   <v>       0.20775411       0.11832223       0.35314480 </v>
   <v>      -0.06445226      -0.22408196      -0.28879939 </v>
   <v>       0.20785725       0.11823578       0.35320875 </v>
   <v>      -0.06436251      -0.22415661      -0.28877849 </v>
   <v>       0.20780094       0.11827701       0.35315701 </v>
   <v>      -0.06445212      -0.22412073      -0.28884468 </v>
   <v>       0.20791130       0.11815610       0.35315935 </v>
   <v>      -0.06433413      -0.22418142      -0.28880460 </v>
   <v>       0.00921840      -0.00921567      -0.00023650 </v>
   <v>       0.00921593      -0.00921599      -0.00023161 </v>
   <v>       0.00923010      -0.00921464      -0.00023467 </v>
   <v>       0.00923225      -0.00921522      -0.00023451 </v>
  </varray>
  <varray name="stress" >
   <v>     -11.36715334       6.79605730      -0.26325521 </v>
   <v>       6.79605679     -11.54255458      -0.24895182 </v>
   <v>      -0.26325431      -0.24895173     -11.58046385 </v>
  </varray>
  <energy>
   <i name="e_fr_energy">   -170.83122857 </i>
   <i name="e_wo_entrp">   -170.83122857 </i>
   <i name="e_0_energy">   -170.83122857 </i>
  </energy>
  <time name="totalsc">  202.97  203.13</time>
 </calculation>
 <calculation>
  <scstep>
   <time name="total">   15.99   15.99</time>
   <energy>
    <i name="alphaZ">    114.23504403 </i>
    <i name="ewald">  -4579.74217324 </i>
    <i name="hartreedc">  -2353.50429130 </i>
    <i name="XCdc">   -359.69958361 </i>
    <i name="pawpsdc">  11389.40109667 </i>
    <i name="pawaedc"> -10570.78231302 </i>
    <i name="eentropy">     -0.00000000 </i>
    <i name="bandstr">   -971.05465371 </i>
    <i name="atom">   7160.47832104 </i>
    <i name="e_fr_energy">   -170.66855315 </i>
    <i name="e_wo_entrp">   -170.66855315 </i>
    <i name="e_0_energy">   -170.66855315 </i>
   </energy>
  </scstep>
  <scstep>
   <time name="total">   15.95   15.96</time>
   <energy>
    <i name="e_fr_energy">   -170.88650187 </i>
    <i name="e_wo_entrp">   -170.88650187 </i>
    <i name="e_0_energy">   -170.88650187 </i>
   </energy>
  </scstep>
  <scstep>
   <time name="total">   15.94   15.95</time>
   <energy>
    <i name="e_fr_energy">   -170.93341451 </i>
    <i name="e_wo_entrp">   -170.93341451 </i>
    <i name="e_0_energy">   -170.93341451 </i>
   </energy>
  </scstep>
  <scstep>
   <time name="total">   15.94   15.95</time>
   <energy>
    <i name="e_fr_energy">   -170.94404363 </i>
    <i name="e_wo_entrp">   -170.94404363 </i>
    <i name="e_0_energy">   -170.94404363 </i>
   </energy>
  </scstep>
  <scstep>
   <time name="total">   15.95   15.96</time>
   <energy>
    <i name="e_fr_energy">   -170.94600384 </i>
    <i name="e_wo_entrp">   -170.94600384 </i>
    <i name="e_0_energy">   -170.94600384 </i>
   </energy>
  </scstep>
  <scstep>
   <time name="total">   15.95   15.96</time>
   <energy>
    <i name="e_fr_energy">   -170.94659073 </i>
    <i name="e_wo_entrp">   -170.94659073 </i>
    <i name="e_0_energy">   -170.94659073 </i>
   </energy>
  </scstep>
  <scstep>
   <time name="total">   15.95   15.95</time>
   <energy>
    <i name="e_fr_energy">   -170.94678633 </i>
    <i name="e_wo_entrp">   -170.94678633 </i>
    <i name="e_0_energy">   -170.94678633 </i>
   </energy>
  </scstep>
  <scstep>
   <time name="total">   15.94   15.95</time>
   <energy>
    <i name="e_fr_energy">   -170.94683703 </i>
    <i name="e_wo_entrp">   -170.94683703 </i>
    <i name="e_0_energy">   -170.94683703 </i>
   </energy>
  </scstep>
  <scstep>
   <time name="total">   15.95   15.96</time>
   <energy>
    <i name="e_fr_energy">   -170.94684789 </i>
    <i name="e_wo_entrp">   -170.94684789 </i>
    <i name="e_0_energy">   -170.94684789 </i>
   </energy>
  </scstep>
  <scstep>
   <time name="total">   17.51   17.52</time>
   <energy>
    <i name="alphaZ">    114.23504403 </i>
    <i name="ewald">  -4579.74217324 </i>
    <i name="hartreedc">  -2357.36765568 </i>
    <i name="XCdc">   -359.26420944 </i>
    <i name="pawpsdc">  11709.03225978 </i>
    <i name="pawaedc"> -10890.28564163 </i>
    <i name="eentropy">     -0.00000000 </i>
    <i name="bandstr">   -968.03279522 </i>
    <i name="atom">   7160.47832104 </i>
    <i name="e_fr_energy">   -170.94685036 </i>
    <i name="e_wo_entrp">   -170.94685036 </i>
    <i name="e_0_energy">   -170.94685036 </i>
   </energy>
  </scstep>
  <structure>
   <crystal>
    <varray name="basis" >
     <v>      12.64281627      -0.01848509       0.02657715 </v>
     <v>      -0.00924255       6.32216474       0.01424870 </v>
     <v>       0.02657715       0.02849741      12.65473580 </v>
    </varray>
    <i name="volume">   1011.48084346 </i>
    <varray name="rec_basis" >
     <v>       0.07909682       0.00011601      -0.00016638 </v>
     <v>       0.00023202       0.15817481      -0.00035668 </v>
     <v>      -0.00016638      -0.00017834       0.07902255 </v>
    </varray>
   </crystal>
   <varray name="positions" >
    <v>       0.47325507       0.05449142       0.99922866 </v>
    <v>       0.47325518       0.05449162       0.49922910 </v>
    <v>       0.97325503       0.05449139       0.99922860 </v>
    <v>       0.97325515       0.05449165       0.49922909 </v>
    <v>       0.03498076       0.80965961       0.41228351 </v>
    <v>       0.09482336       0.93397867       0.08842771 </v>
    <v>       0.02670704       0.15055237       0.14216618 </v>
    <v>       0.42685196       0.94344189       0.35660469 </v>
    <v>       0.41185908       0.17686386       0.99842027 </v>
    <v>       0.03498066       0.80965983       0.91228348 </v>
    <v>       0.09482327       0.93397886       0.58842773 </v>
    <v>       0.02670705       0.15055219       0.64216610 </v>
    <v>       0.42685205       0.94344187       0.85660476 </v>
    <v>       0.41185908       0.17686388       0.49842032 </v>
    <v>       0.53498076       0.80965961       0.41228351 </v>
    <v>       0.59482335       0.93397869       0.08842772 </v>
    <v>       0.52670704       0.15055235       0.14216617 </v>
    <v>       0.92685195       0.94344189       0.35660469 </v>
    <v>       0.91185907       0.17686385       0.99842027 </v>
    <v>       0.53498067       0.80965981       0.91228347 </v>
    <v>       0.59482326       0.93397887       0.58842774 </v>
    <v>       0.52670705       0.15055219       0.64216609 </v>
    <v>       0.92685206       0.94344186       0.85660478 </v>
    <v>       0.91185907       0.17686387       0.49842032 </v>
    <v>       0.00001417       0.49965943       0.24986549 </v>
    <v>       0.25017729      -0.00003782       0.25013424 </v>
    <v>       0.24980450       0.50039655      -0.00000216 </v>
    <v>       0.00001415       0.49965942       0.74986540 </v>
    <v>       0.25017729      -0.00003780       0.75013413 </v>
    <v>       0.24980450       0.50039652       0.49999814 </v>
    <v>       0.50001417       0.49965942       0.24986551 </v>
    <v>       0.75017706      -0.00003781       0.25013423 </v>
    <v>       0.74980429       0.50039655      -0.00000217 </v>
    <v>       0.50001415       0.49965942       0.74986538 </v>
    <v>       0.75017708      -0.00003780       0.75013414 </v>
    <v>       0.74980426       0.50039651       0.49999814 </v>
    <v>       0.03431774       0.04110630       0.08249542 </v>
    <v>       0.48108066       0.93036176       0.41678800 </v>
    <v>       0.03431775       0.04110638       0.58249565 </v>
    <v>       0.48108064       0.93036180       0.91678775 </v>
    <v>       0.53431772       0.04110633       0.08249545 </v>
    <v>       0.98108064       0.93036180       0.41678802 </v>
    <v>       0.53431773       0.04110647       0.58249567 </v>
    <v>       0.98108061       0.93036178       0.91678774 </v>
    <v>       0.25001647       0.49996718       0.24999943 </v>
    <v>       0.25001647       0.49996717       0.74999938 </v>
    <v>       0.75001637       0.49996717       0.24999942 </v>
    <v>       0.75001638       0.49996717       0.74999938 </v>
   </varray>
  </structure>
  <varray name="forces" >
   <v>      -0.00208307      -0.01431365      -0.01362697 </v>
   <v>      -0.00217568      -0.01440273      -0.01389521 </v>
   <v>      -0.00205562      -0.01430957      -0.01359361 </v>
   <v>      -0.00216053      -0.01440896      -0.01388680 </v>
   <v>      -0.09984413       0.10097400       0.00078320 </v>
   <v>      -0.09253494       0.08877541      -0.00413543 </v>
   <v>       0.01629239      -0.10494562      -0.12903584 </v>
   <v>       0.09781847      -0.00877576       0.11406245 </v>
   <v>      -0.00360231       0.00307223       0.00626434 </v>
   <v>      -0.09980504       0.10092220       0.00076110 </v>
   <v>      -0.09248793       0.08874038      -0.00411659 </v>
   <v>       0.01629378      -0.10485235      -0.12891069 </v>
   <v>       0.09772410      -0.00877729       0.11393455 </v>
   <v>      -0.00358840       0.00307424       0.00629050 </v>
   <v>      -0.09983726       0.10096763       0.00078308 </v>
   <v>      -0.09253709       0.08877870      -0.00413316 </v>
   <v>       0.01628993      -0.10493055      -0.12901795 </v>
   <v>       0.09781497      -0.00877529       0.11405864 </v>
   <v>      -0.00360596       0.00307514       0.00626102 </v>
   <v>      -0.09979957       0.10091711       0.00076262 </v>
   <v>      -0.09250136       0.08875477      -0.00411651 </v>
   <v>       0.01629009      -0.10483995      -0.12890068 </v>
   <v>       0.09771391      -0.00877794       0.11391920 </v>
   <v>      -0.00359928       0.00308721       0.00629213 </v>
   <v>       0.01135597      -0.09657662      -0.07276586 </v>
   <v>       0.09964373      -0.01382990       0.07164633 </v>
   <v>      -0.10574044       0.10706819      -0.00130526 </v>
   <v>       0.01136859      -0.09657855      -0.07278392 </v>
   <v>       0.09964012      -0.01383684       0.07162916 </v>
   <v>      -0.10573624       0.10706936      -0.00130102 </v>
   <v>       0.01136598      -0.09657988      -0.07276011 </v>
   <v>       0.09966254      -0.01383439       0.07165229 </v>
   <v>      -0.10571804       0.10707414      -0.00129473 </v>
   <v>       0.01136315      -0.09656931      -0.07278586 </v>
   <v>       0.09966026      -0.01384100       0.07162800 </v>
   <v>      -0.10572277       0.10706962      -0.00130793 </v>
   <v>       0.09040457       0.04250928       0.17703272 </v>
   <v>      -0.02091953      -0.09469842      -0.14857865 </v>
   <v>       0.09045284       0.04245788       0.17704532 </v>
   <v>      -0.02087520      -0.09473114      -0.14856922 </v>
   <v>       0.09042421       0.04248673       0.17703243 </v>
   <v>      -0.02092213      -0.09471521      -0.14860510 </v>
   <v>       0.09047569       0.04242041       0.17701291 </v>
   <v>      -0.02085257      -0.09474817      -0.14858145 </v>
   <v>       0.00915879      -0.00916322      -0.00020728 </v>
   <v>       0.00915612      -0.00916162      -0.00021343 </v>
   <v>       0.00916816      -0.00916281      -0.00020657 </v>
   <v>       0.00916674      -0.00915787      -0.00021618 </v>
  </varray>
  <varray name="stress" >
   <v>      -1.34060652       0.58442239       3.73741373 </v>
   <v>       0.58442218      -1.20787444       4.01972424 </v>
   <v>       3.73741438       4.01972475       0.30416742 </v>
  </varray>
  <energy>
   <i name="e_fr_energy">   -170.94685036 </i>
   <i name="e_wo_entrp">   -170.94685036 </i>
   <i name="e_0_energy">   -170.94685036 </i>
  </energy>
  <time name="totalsc">  187.10  187.21</time>
 </calculation>
 <calculation>
  <scstep>
   <time name="total">   15.98   15.99</time>
   <energy>
    <i name="alphaZ">    114.07259208 </i>
    <i name="ewald">  -4593.45716692 </i>
    <i name="hartreedc">  -2349.81537198 </i>
    <i name="XCdc">   -359.43183129 </i>
    <i name="pawpsdc">  11744.50485619 </i>
    <i name="pawaedc"> -10925.69297521 </i>
    <i name="eentropy">     -0.00000000 </i>
    <i name="bandstr">   -961.13906925 </i>
    <i name="atom">   7160.47832104 </i>
    <i name="e_fr_energy">   -170.48064535 </i>
    <i name="e_wo_entrp">   -170.48064535 </i>
    <i name="e_0_energy">   -170.48064535 </i>
   </energy>
  </scstep>
  <scstep>
   <time name="total">   15.95   15.96</time>
   <energy>
    <i name="e_fr_energy">   -170.84826888 </i>
    <i name="e_wo_entrp">   -170.84826888 </i>
    <i name="e_0_energy">   -170.84826888 </i>
   </energy>
  </scstep>
  <scstep>
   <time name="total">   15.95   15.97</time>
   <energy>
    <i name="e_fr_energy">   -170.93338479 </i>
    <i name="e_wo_entrp">   -170.93338479 </i>
    <i name="e_0_energy">   -170.93338479 </i>
   </energy>
  </scstep>
  <scstep>
   <time name="total">   15.94   15.95</time>
   <energy>
    <i name="e_fr_energy">   -170.95085635 </i>
    <i name="e_wo_entrp">   -170.95085635 </i>
    <i name="e_0_energy">   -170.95085635 </i>
   </energy>
  </scstep>
  <scstep>
   <time name="total">   15.95   15.97</time>
   <energy>
    <i name="e_fr_energy">   -170.95470284 </i>
    <i name="e_wo_entrp">   -170.95470284 </i>
    <i name="e_0_energy">   -170.95470284 </i>
   </energy>
  </scstep>
  <scstep>
   <time name="total">   15.95   15.96</time>
   <energy>
    <i name="e_fr_energy">   -170.95578141 </i>
    <i name="e_wo_entrp">   -170.95578141 </i>
    <i name="e_0_energy">   -170.95578141 </i>
   </energy>
  </scstep>
  <scstep>
   <time name="total">   15.95   15.96</time>
   <energy>
    <i name="e_fr_energy">   -170.95613495 </i>
    <i name="e_wo_entrp">   -170.95613495 </i>
    <i name="e_0_energy">   -170.95613495 </i>
   </energy>
  </scstep>
  <scstep>
   <time name="total">   15.93   15.95</time>
   <energy>
    <i name="e_fr_energy">   -170.95623350 </i>
    <i name="e_wo_entrp">   -170.95623350 </i>
    <i name="e_0_energy">   -170.95623350 </i>
   </energy>
  </scstep>
  <scstep>
   <time name="total">   15.95   15.97</time>
   <energy>
    <i name="e_fr_energy">   -170.95625615 </i>
    <i name="e_wo_entrp">   -170.95625615 </i>
    <i name="e_0_energy">   -170.95625615 </i>
   </energy>
  </scstep>
  <scstep>
   <time name="total">   15.94   15.95</time>
   <energy>
    <i name="e_fr_energy">   -170.95626124 </i>
    <i name="e_wo_entrp">   -170.95626124 </i>
    <i name="e_0_energy">   -170.95626124 </i>
   </energy>
  </scstep>
  <scstep>
   <time name="total">   17.51   17.53</time>
   <energy>
    <i name="alphaZ">    114.07259208 </i>
    <i name="ewald">  -4593.45716692 </i>
    <i name="hartreedc">  -2342.85805483 </i>
    <i name="XCdc">   -359.63072416 </i>
    <i name="pawpsdc">  11616.23162060 </i>
    <i name="pawaedc"> -10797.45275425 </i>
    <i name="eentropy">     -0.00000000 </i>
    <i name="bandstr">   -968.34009606 </i>
    <i name="atom">   7160.47832104 </i>
    <i name="e_fr_energy">   -170.95626249 </i>
    <i name="e_wo_entrp">   -170.95626249 </i>
    <i name="e_0_energy">   -170.95626249 </i>
   </energy>
  </scstep>
  <structure>
   <crystal>
    <varray name="basis" >
     <v>      12.64315965      -0.02072626       0.06262113 </v>
     <v>      -0.01036228       6.32308283       0.03362303 </v>
     <v>       0.06267304       0.06729322      12.67112926 </v>
    </varray>
    <i name="volume">   1012.92130369 </i>
    <varray name="rec_basis" >
     <v>       0.07909631       0.00013171      -0.00039192 </v>
     <v>       0.00026344       0.15815561      -0.00084123 </v>
     <v>      -0.00039160      -0.00042032       0.07892373 </v>
    </varray>
   </crystal>
   <varray name="positions" >
    <v>       0.47321635       0.05445289       0.99918726 </v>
    <v>       0.47321618       0.05445256       0.49918694 </v>
    <v>       0.97321639       0.05445288       0.99918730 </v>
    <v>       0.97321620       0.05445256       0.49918696 </v>
    <v>       0.03480870       0.80995031       0.41225808 </v>
    <v>       0.09470020       0.93425641       0.08844333 </v>
    <v>       0.02674302       0.15018919       0.14192363 </v>
    <v>       0.42701754       0.94341524       0.35679337 </v>
    <v>       0.41170695       0.17716381       0.99844396 </v>
    <v>       0.03480870       0.80995025       0.91225797 </v>
    <v>       0.09470023       0.93425643       0.58844343 </v>
    <v>       0.02674303       0.15018958       0.64192394 </v>
    <v>       0.42701735       0.94341521       0.85679303 </v>
    <v>       0.41170700       0.17716385       0.49844412 </v>
    <v>       0.53480872       0.80995026       0.41225808 </v>
    <v>       0.59470017       0.93425646       0.08844335 </v>
    <v>       0.52674301       0.15018927       0.14192368 </v>
    <v>       0.92701753       0.94341525       0.35679336 </v>
    <v>       0.91170693       0.17716382       0.99844395 </v>
    <v>       0.53480873       0.80995020       0.91225797 </v>
    <v>       0.59470018       0.93425654       0.58844344 </v>
    <v>       0.52674302       0.15018967       0.64192397 </v>
    <v>       0.92701732       0.94341519       0.85679300 </v>
    <v>       0.91170696       0.17716392       0.49844413 </v>
    <v>       0.00005780       0.49888612       0.24957268 </v>
    <v>       0.25057693      -0.00014525       0.25042323 </v>
    <v>       0.24937774       0.50126098      -0.00000745 </v>
    <v>       0.00005782       0.49888610       0.74957250 </v>
    <v>       0.25057691      -0.00014526       0.75042303 </v>
    <v>       0.24937775       0.50126095       0.49999296 </v>
    <v>       0.50005783       0.49888609       0.24957272 </v>
    <v>       0.75057668      -0.00014526       0.25042325 </v>
    <v>       0.74937752       0.50126102      -0.00000743 </v>
    <v>       0.50005780       0.49888616       0.74957246 </v>
    <v>       0.75057670      -0.00014530       0.75042304 </v>
    <v>       0.74937747       0.50126093       0.49999294 </v>
    <v>       0.03460658       0.04135319       0.08308891 </v>
    <v>       0.48102295       0.92976527       0.41628625 </v>
    <v>       0.03460675       0.04135295       0.58308927 </v>
    <v>       0.48102307       0.92976511       0.91628595 </v>
    <v>       0.53460662       0.04135308       0.08308896 </v>
    <v>       0.98102292       0.92976521       0.41628618 </v>
    <v>       0.53460681       0.04135281       0.58308918 </v>
    <v>       0.98102310       0.92976496       0.91628589 </v>
    <v>       0.25005328       0.49989360       0.24999853 </v>
    <v>       0.25005327       0.49989359       0.74999844 </v>
    <v>       0.75005318       0.49989359       0.24999853 </v>
    <v>       0.75005319       0.49989362       0.74999844 </v>
   </varray>
  </structure>
  <varray name="forces" >
   <v>       0.29225397      -0.25370567       0.06346333 </v>
   <v>       0.29247885      -0.25351218       0.06406936 </v>
   <v>       0.29217740      -0.25373216       0.06331311 </v>
   <v>       0.29243141      -0.25350980       0.06402277 </v>
   <v>       0.02589043      -0.05753903      -0.03548523 </v>
   <v>       0.03977838      -0.00461657       0.04325942 </v>
   <v>      -0.00733235       0.06442090       0.04747187 </v>
   <v>      -0.02989217       0.00603922      -0.01880737 </v>
   <v>       0.06357651      -0.07038623      -0.00122249 </v>
   <v>       0.02595353      -0.05761324      -0.03549289 </v>
   <v>       0.03985193      -0.00467638       0.04328263 </v>
   <v>      -0.00731852       0.06434733       0.04740035 </v>
   <v>      -0.02981936       0.00603231      -0.01870872 </v>
   <v>       0.06356061      -0.07038954      -0.00124916 </v>
   <v>       0.02588451      -0.05752442      -0.03547736 </v>
   <v>       0.03980570      -0.00464025       0.04326342 </v>
   <v>      -0.00732236       0.06438325       0.04743646 </v>
   <v>      -0.02990963       0.00603858      -0.01882255 </v>
   <v>       0.06358809      -0.07040081      -0.00122614 </v>
   <v>       0.02592876      -0.05757938      -0.03548446 </v>
   <v>       0.03990422      -0.00472786       0.04327673 </v>
   <v>      -0.00730680       0.06428803       0.04733639 </v>
   <v>      -0.02979906       0.00602586      -0.01868844 </v>
   <v>       0.06357406      -0.07040864      -0.00125254 </v>
   <v>       0.00901161      -0.08527366      -0.06465522 </v>
   <v>       0.09072978      -0.01145192       0.06516090 </v>
   <v>      -0.10168425       0.10330270      -0.00111946 </v>
   <v>       0.00902447      -0.08527798      -0.06455391 </v>
   <v>       0.09071816      -0.01145631       0.06525679 </v>
   <v>      -0.10167261       0.10330803      -0.00115678 </v>
   <v>       0.00903788      -0.08527394      -0.06464778 </v>
   <v>       0.09068833      -0.01145793       0.06516462 </v>
   <v>      -0.10170544       0.10330117      -0.00110943 </v>
   <v>       0.00902897      -0.08528605      -0.06457080 </v>
   <v>       0.09069867      -0.01145203       0.06526160 </v>
   <v>      -0.10171314       0.10330641      -0.00116857 </v>
   <v>      -0.40527797      -0.08708669      -0.71648028 </v>
   <v>       0.01364398       0.40556169       0.61844767 </v>
   <v>      -0.40563071      -0.08695369      -0.71678869 </v>
   <v>       0.01351487       0.40583469       0.61872339 </v>
   <v>      -0.40536806      -0.08700672      -0.71650109 </v>
   <v>       0.01364537       0.40560678       0.61853236 </v>
   <v>      -0.40569958      -0.08681629      -0.71670800 </v>
   <v>       0.01345799       0.40591180       0.61875485 </v>
   <v>       0.00941115      -0.00948901      -0.00040145 </v>
   <v>       0.00940662      -0.00948821      -0.00035941 </v>
   <v>       0.00939791      -0.00948711      -0.00040112 </v>
   <v>       0.00939792      -0.00948905      -0.00035865 </v>
  </varray>
  <varray name="stress" >
   <v>      -2.06756599      -0.25848182       1.05841389 </v>
   <v>      -0.25848212      -1.71540372       1.63793395 </v>
   <v>       1.05841387       1.63793457      -7.26240541 </v>
  </varray>
  <energy>
   <i name="e_fr_energy">   -170.95626249 </i>
   <i name="e_wo_entrp">   -170.95626249 </i>
   <i name="e_0_energy">   -170.95626249 </i>
  </energy>
  <time name="totalsc">  203.01  203.20</time>
 </calculation>
 <calculation>
  <scstep>
   <time name="total">   15.98   15.99</time>
   <energy>
    <i name="alphaZ">    114.13814555 </i>
    <i name="ewald">  -4587.94155630 </i>
    <i name="hartreedc">  -2345.73097341 </i>
    <i name="XCdc">   -359.57206977 </i>
    <i name="pawpsdc">  11627.52795116 </i>
    <i name="pawaedc"> -10808.77044011 </i>
    <i name="eentropy">     -0.00000000 </i>
    <i name="bandstr">   -971.01527774 </i>
    <i name="atom">   7160.47832104 </i>
    <i name="e_fr_energy">   -170.88589958 </i>
    <i name="e_wo_entrp">   -170.88589958 </i>
    <i name="e_0_energy">   -170.88589958 </i>
   </energy>
  </scstep>
  <scstep>
   <time name="total">   15.95   15.96</time>
   <energy>
    <i name="e_fr_energy">   -170.94657792 </i>
    <i name="e_wo_entrp">   -170.94657792 </i>
    <i name="e_0_energy">   -170.94657792 </i>
   </energy>
  </scstep>
  <scstep>
   <time name="total">   15.94   15.95</time>
   <energy>
    <i name="e_fr_energy">   -170.96060193 </i>
    <i name="e_wo_entrp">   -170.96060193 </i>
    <i name="e_0_energy">   -170.96060193 </i>
   </energy>
  </scstep>
  <scstep>
   <time name="total">   15.93   15.96</time>
   <energy>
    <i name="e_fr_energy">   -170.96347599 </i>
    <i name="e_wo_entrp">   -170.96347599 </i>
    <i name="e_0_energy">   -170.96347599 </i>
   </energy>
  </scstep>
  <scstep>
   <time name="total">   15.95   15.96</time>
   <energy>
    <i name="e_fr_energy">   -170.96411121 </i>
    <i name="e_wo_entrp">   -170.96411121 </i>
    <i name="e_0_energy">   -170.96411121 </i>
   </energy>
  </scstep>
  <scstep>
   <time name="total">   15.96   15.98</time>
   <energy>
    <i name="e_fr_energy">   -170.96429022 </i>
    <i name="e_wo_entrp">   -170.96429022 </i>
    <i name="e_0_energy">   -170.96429022 </i>
   </energy>
  </scstep>
  <scstep>
   <time name="total">   15.95   15.95</time>
   <energy>
    <i name="e_fr_energy">   -170.96434849 </i>
    <i name="e_wo_entrp">   -170.96434849 </i>
    <i name="e_0_energy">   -170.96434849 </i>
   </energy>
  </scstep>
  <scstep>
   <time name="total">   15.95   15.97</time>
   <energy>
    <i name="e_fr_energy">   -170.96436470 </i>
    <i name="e_wo_entrp">   -170.96436470 </i>
    <i name="e_0_energy">   -170.96436470 </i>
   </energy>
  </scstep>
  <scstep>
   <time name="total">   17.51   17.53</time>
   <energy>
    <i name="alphaZ">    114.13814555 </i>
    <i name="ewald">  -4587.94155630 </i>
    <i name="hartreedc">  -2348.70819119 </i>
    <i name="XCdc">   -359.48309938 </i>
    <i name="pawpsdc">  11653.09286010 </i>
    <i name="pawaedc"> -10834.32684438 </i>
    <i name="eentropy">     -0.00000000 </i>
    <i name="bandstr">   -968.21400377 </i>
    <i name="atom">   7160.47832104 </i>
    <i name="e_fr_energy">   -170.96436833 </i>
    <i name="e_wo_entrp">   -170.96436833 </i>
    <i name="e_0_energy">   -170.96436833 </i>
   </energy>
  </scstep>
  <structure>
   <crystal>
    <varray name="basis" >
     <v>      12.64301996      -0.01981453       0.04795803 </v>
     <v>      -0.00990676       6.32270934       0.02574133 </v>
     <v>       0.04798882       0.05151064      12.66446021 </v>
    </varray>
    <i name="volume">   1012.33954812 </i>
    <varray name="rec_basis" >
     <v>       0.07909636       0.00012515      -0.00030023 </v>
     <v>       0.00025032       0.15816306      -0.00064425 </v>
     <v>      -0.00030003      -0.00032195       0.07896357 </v>
    </varray>
   </crystal>
   <varray name="positions" >
    <v>       0.47323205       0.05446846       0.99920401 </v>
    <v>       0.47323200       0.05446835       0.49920400 </v>
    <v>       0.97323206       0.05446844       0.99920401 </v>
    <v>       0.97323200       0.05446836       0.49920401 </v>
    <v>       0.03487866       0.80983203       0.41226840 </v>
    <v>       0.09475031       0.93414350       0.08843701 </v>
    <v>       0.02672811       0.15033631       0.14202199 </v>
    <v>       0.42695040       0.94342652       0.35671689 </v>
    <v>       0.41176885       0.17704188       0.99843435 </v>
    <v>       0.03487861       0.80983208       0.91226831 </v>
    <v>       0.09475029       0.93414358       0.58843708 </v>
    <v>       0.02672813       0.15033647       0.64202215 </v>
    <v>       0.42695032       0.94342650       0.85671671 </v>
    <v>       0.41176888       0.17704192       0.49843446 </v>
    <v>       0.53487867       0.80983200       0.41226839 </v>
    <v>       0.59475028       0.93414354       0.08843703 </v>
    <v>       0.52672811       0.15033635       0.14202202 </v>
    <v>       0.92695039       0.94342653       0.35671688 </v>
    <v>       0.91176883       0.17704188       0.99843434 </v>
    <v>       0.53487864       0.80983204       0.91226831 </v>
    <v>       0.59475026       0.93414365       0.58843709 </v>
    <v>       0.52672812       0.15033652       0.64202216 </v>
    <v>       0.92695031       0.94342648       0.85671670 </v>
    <v>       0.91176886       0.17704196       0.49843447 </v>
    <v>       0.00003974       0.49919993       0.24969122 </v>
    <v>       0.25041469      -0.00010090       0.25030621 </v>
    <v>       0.24955131       0.50090941      -0.00000525 </v>
    <v>       0.00003975       0.49919992       0.74969107 </v>
    <v>       0.25041468      -0.00010089       0.75030604 </v>
    <v>       0.24955131       0.50090939       0.49999511 </v>
    <v>       0.50003976       0.49919991       0.24969125 </v>
    <v>       0.75041445      -0.00010089       0.25030622 </v>
    <v>       0.74955109       0.50090944      -0.00000525 </v>
    <v>       0.50003974       0.49919995       0.74969104 </v>
    <v>       0.75041448      -0.00010092       0.75030605 </v>
    <v>       0.74955105       0.50090937       0.49999509 </v>
    <v>       0.03448976       0.04125420       0.08284827 </v>
    <v>       0.48104587       0.93000666       0.41648968 </v>
    <v>       0.03448986       0.04125410       0.58284857 </v>
    <v>       0.48104593       0.93000658       0.91648939 </v>
    <v>       0.53448978       0.04125415       0.08284831 </v>
    <v>       0.98104584       0.93000663       0.41648964 </v>
    <v>       0.53448989       0.04125404       0.58284853 </v>
    <v>       0.98104594       0.93000648       0.91648936 </v>
    <v>       0.25003831       0.49992352       0.24999889 </v>
    <v>       0.25003830       0.49992351       0.74999882 </v>
    <v>       0.75003821       0.49992351       0.24999889 </v>
    <v>       0.75003822       0.49992353       0.74999882 </v>
   </varray>
  </structure>
  <varray name="forces" >
   <v>       0.17666781      -0.15995275       0.03310818 </v>
   <v>       0.17676672      -0.15985588       0.03340252 </v>
   <v>       0.17664597      -0.15995187       0.03307134 </v>
   <v>       0.17676315      -0.15985628       0.03340128 </v>
[...]
       <r>    4.3517    0.0000 </r>
       <r>    4.3517    0.0000 </r>
       <r>    4.4069    0.0000 </r>
       <r>    4.4069    0.0000 </r>
       <r>    4.5017    0.0000 </r>
       <r>    4.5017    0.0000 </r>
       <r>    4.5841    0.0000 </r>
       <r>    4.5841    0.0000 </r>
       <r>    4.8214    0.0000 </r>
       <r>    4.8214    0.0000 </r>
       <r>    4.8395    0.0000 </r>
       <r>    4.8395    0.0000 </r>
       <r>    6.2438    0.0000 </r>
       <r>    6.2438    0.0000 </r>
       <r>    6.4207    0.0000 </r>
       <r>    6.4207    0.0000 </r>
       <r>    6.5374    0.0000 </r>
       <r>    6.5374    0.0000 </r>
       <r>    6.7100    0.0000 </r>
       <r>    6.7100    0.0000 </r>
       <r>    7.0358    0.0000 </r>
       <r>    7.0358    0.0000 </r>
       <r>    7.2474    0.0000 </r>
       <r>    7.2475    0.0000 </r>
       <r>    7.5791    0.0000 </r>
       <r>    7.5792    0.0000 </r>
       <r>    7.5854    0.0000 </r>
       <r>    7.5854    0.0000 </r>
      </set>
     </set>
    </set>
   </array>
  </eigenvalues>
  <separator name="orbital magnetization" >
   <v name="MAGDIPOLOUT">      0.00000000      0.00000000      0.00000000</v>
  </separator>
  <dos>
   <i name="efermi">      2.19824120 </i>
   <total>
    <array>
     <dimension dim="1">gridpoints</dimension>
     <dimension dim="2">spin</dimension>
     <field>energy</field>
     <field>total</field>
     <field>integrated</field>
     <set>
      <set comment="spin 1">
       <r>   -20.2593     0.0000     0.0000 </r>
       <r>   -20.1613     0.0000     0.0000 </r>
       <r>   -20.0632     0.0000     0.0000 </r>
       <r>   -19.9652     0.0000     0.0000 </r>
       <r>   -19.8671     0.0000     0.0000 </r>
       <r>   -19.7691     0.0000     0.0000 </r>
       <r>   -19.6710     0.0000     0.0000 </r>
       <r>   -19.5730     0.0000     0.0000 </r>
       <r>   -19.4750     0.0000     0.0000 </r>
       <r>   -19.3769     0.0000     0.0000 </r>
       <r>   -19.2789     0.0000     0.0000 </r>
       <r>   -19.1808     0.0000     0.0000 </r>
       <r>   -19.0828     0.0002     0.0000 </r>
       <r>   -18.9848     2.8697     0.2814 </r>
       <r>   -18.8867    65.0352     6.6575 </r>
       <r>   -18.7887    13.6857     7.9993 </r>
       <r>   -18.6906     0.0076     8.0000 </r>
       <r>   -18.5926     0.0000     8.0000 </r>
       <r>   -18.4946     0.0000     8.0000 </r>
       <r>   -18.3965     0.0000     8.0000 </r>
       <r>   -18.2985     0.0000     8.0000 </r>
       <r>   -18.2004     0.0000     8.0000 </r>
       <r>   -18.1024     0.0000     8.0000 </r>
       <r>   -18.0043     0.0000     8.0000 </r>
       <r>   -17.9063     0.0000     8.0000 </r>
       <r>   -17.8083     0.0000     8.0000 </r>
       <r>   -17.7102     0.0000     8.0000 </r>
       <r>   -17.6122     0.0000     8.0000 </r>
       <r>   -17.5141     0.0000     8.0000 </r>
       <r>   -17.4161     0.0000     8.0000 </r>
       <r>   -17.3181     0.0000     8.0000 </r>
       <r>   -17.2200     0.0000     8.0000 </r>
       <r>   -17.1220     0.0000     8.0000 </r>
       <r>   -17.0239     0.0000     8.0000 </r>
       <r>   -16.9259     0.0000     8.0000 </r>
       <r>   -16.8279     0.0001     8.0000 </r>
       <r>   -16.7298     2.4850     8.2436 </r>
       <r>   -16.6318    64.0339    14.5216 </r>
       <r>   -16.5337    15.0694    15.9990 </r>
       <r>   -16.4357     0.0100    16.0000 </r>
       <r>   -16.3377     0.0000    16.0000 </r>
       <r>   -16.2396     0.0000    16.0000 </r>
       <r>   -16.1416     0.0000    16.0000 </r>
       <r>   -16.0435     0.0000    16.0000 </r>
       <r>   -15.9455     0.0000    16.0000 </r>
       <r>   -15.8474     0.0000    16.0000 </r>
       <r>   -15.7494     0.0000    16.0000 </r>
       <r>   -15.6514     0.0000    16.0000 </r>
       <r>   -15.5533     0.0000    16.0000 </r>
       <r>   -15.4553     0.0000    16.0000 </r>
       <r>   -15.3572     0.0000    16.0000 </r>
       <r>   -15.2592     0.0000    16.0000 </r>
       <r>   -15.1612     0.0000    16.0000 </r>
       <r>   -15.0631     0.0000    16.0000 </r>
       <r>   -14.9651     0.0000    16.0000 </r>
       <r>   -14.8670     0.0000    16.0000 </r>
       <r>   -14.7690     0.0000    16.0000 </r>
       <r>   -14.6710     0.0000    16.0000 </r>
       <r>   -14.5729     0.0000    16.0000 </r>
       <r>   -14.4749     0.0000    16.0000 </r>
       <r>   -14.3768     0.0000    16.0000 </r>
       <r>   -14.2788     0.0000    16.0000 </r>
       <r>   -14.1807     0.0000    16.0000 </r>
       <r>   -14.0827     0.0000    16.0000 </r>
       <r>   -13.9847     0.0000    16.0000 </r>
       <r>   -13.8866     0.0000    16.0000 </r>
       <r>   -13.7886     0.0000    16.0000 </r>
       <r>   -13.6905     0.0000    16.0000 </r>
       <r>   -13.5925     0.0000    16.0000 </r>
       <r>   -13.4945     0.0000    16.0000 </r>
       <r>   -13.3964     0.0000    16.0000 </r>
       <r>   -13.2984     0.0000    16.0000 </r>
       <r>   -13.2003     0.0000    16.0000 </r>
       <r>   -13.1023     0.0000    16.0000 </r>
       <r>   -13.0043     0.0000    16.0000 </r>
       <r>   -12.9062     0.0000    16.0000 </r>
       <r>   -12.8082     0.0000    16.0000 </r>
       <r>   -12.7101     0.0000    16.0000 </r>
       <r>   -12.6121     0.0000    16.0000 </r>
       <r>   -12.5140     0.0000    16.0000 </r>
       <r>   -12.4160     0.0000    16.0000 </r>
       <r>   -12.3180     0.0000    16.0000 </r>
       <r>   -12.2199     0.0000    16.0000 </r>
       <r>   -12.1219     0.0000    16.0000 </r>
       <r>   -12.0238     0.0000    16.0000 </r>
       <r>   -11.9258     0.0000    16.0000 </r>
       <r>   -11.8278     0.0000    16.0000 </r>
       <r>   -11.7297     0.0000    16.0000 </r>
       <r>   -11.6317     0.0000    16.0000 </r>
       <r>   -11.5336     0.0000    16.0000 </r>
       <r>   -11.4356     0.0000    16.0000 </r>
       <r>   -11.3376     0.0000    16.0000 </r>
       <r>   -11.2395     0.0000    16.0000 </r>
       <r>   -11.1415     0.0000    16.0000 </r>
       <r>   -11.0434     0.0011    16.0001 </r>
       <r>   -10.9454     0.5800    16.0570 </r>
       <r>   -10.8473     9.7331    17.0112 </r>
       <r>   -10.7493    39.4393    20.8779 </r>
       <r>   -10.6513    32.5235    24.0665 </r>
       <r>   -10.5532    26.1575    26.6310 </r>
       <r>   -10.4552    44.4722    30.9911 </r>
       <r>   -10.3571    24.2049    33.3642 </r>
       <r>   -10.2591    62.7127    39.5126 </r>
       <r>   -10.1611    70.7105    46.4452 </r>
       <r>   -10.0630    15.7895    47.9932 </r>
       <r>    -9.9650     0.0693    48.0000 </r>
       <r>    -9.8669     0.0000    48.0000 </r>
       <r>    -9.7689     0.0000    48.0000 </r>
       <r>    -9.6709     0.0000    48.0000 </r>
       <r>    -9.5728     0.0000    48.0000 </r>
       <r>    -9.4748     0.0000    48.0000 </r>
       <r>    -9.3767     0.0000    48.0000 </r>
       <r>    -9.2787     0.0000    48.0000 </r>
       <r>    -9.1807     0.0000    48.0000 </r>
       <r>    -9.0826     0.0000    48.0000 </r>
       <r>    -8.9846     0.0000    48.0000 </r>
       <r>    -8.8865     0.3807    48.0373 </r>
       <r>    -8.7885    43.0827    52.2612 </r>
       <r>    -8.6904    37.9233    55.9792 </r>
       <r>    -8.5924     0.2117    56.0000 </r>
       <r>    -8.4944     0.0000    56.0000 </r>
       <r>    -8.3963     0.0000    56.0000 </r>
       <r>    -8.2983     0.0000    56.0000 </r>
       <r>    -8.2002     0.7758    56.0761 </r>
       <r>    -8.1022    53.3736    61.3089 </r>
       <r>    -8.0042    27.3911    63.9943 </r>
       <r>    -7.9061     0.0580    64.0000 </r>
       <r>    -7.8081     0.0000    64.0000 </r>
       <r>    -7.7100     0.0000    64.0000 </r>
       <r>    -7.6120     0.0000    64.0000 </r>
       <r>    -7.5140     0.0000    64.0000 </r>
       <r>    -7.4159     0.0000    64.0000 </r>
       <r>    -7.3179     0.0000    64.0000 </r>
       <r>    -7.2198     0.0000    64.0000 </r>
       <r>    -7.1218     0.0000    64.0000 </r>
       <r>    -7.0237     0.0000    64.0000 </r>
       <r>    -6.9257     0.0000    64.0000 </r>
       <r>    -6.8277     0.0000    64.0000 </r>
       <r>    -6.7296     0.0000    64.0000 </r>
       <r>    -6.6316     0.0002    64.0000 </r>
       <r>    -6.5335     1.5043    64.1475 </r>
       <r>    -6.4355    55.0027    69.5400 </r>
       <r>    -6.3375    25.0195    71.9930 </r>
       <r>    -6.2394     0.0717    72.0000 </r>
       <r>    -6.1414     0.0000    72.0000 </r>
       <r>    -6.0433     0.0002    72.0000 </r>
       <r>    -5.9453     0.2751    72.0270 </r>
       <r>    -5.8473     0.9697    72.1221 </r>
       <r>    -5.7492     0.2640    72.1480 </r>
       <r>    -5.6512     5.9875    72.7350 </r>
       <r>    -5.5531     1.4527    72.8774 </r>
       <r>    -5.4551     5.5529    73.4218 </r>
       <r>    -5.3570    12.5576    74.6530 </r>
       <r>    -5.2590     1.9941    74.8485 </r>
       <r>    -5.1610    12.0111    76.0261 </r>
       <r>    -5.0629    14.8659    77.4835 </r>
       <r>    -4.9649    50.6443    82.4487 </r>
       <r>    -4.8668    35.4095    85.9203 </r>
       <r>    -4.7688    10.8649    86.9855 </r>
       <r>    -4.6708     1.4191    87.1247 </r>
       <r>    -4.5727     0.8539    87.2084 </r>
       <r>    -4.4747     7.7706    87.9702 </r>
       <r>    -4.3766    55.6233    93.4236 </r>
       <r>    -4.2786    24.9388    95.8686 </r>
       <r>    -4.1806     0.2040    95.8886 </r>
       <r>    -4.0825     1.0575    95.9923 </r>
       <r>    -3.9845     0.0787    96.0000 </r>
       <r>    -3.8864     0.0000    96.0000 </r>
       <r>    -3.7884     0.0000    96.0000 </r>
       <r>    -3.6904     0.0000    96.0000 </r>
       <r>    -3.5923     0.0000    96.0000 </r>
       <r>    -3.4943     0.0000    96.0000 </r>
       <r>    -3.3962     0.0000    96.0000 </r>
       <r>    -3.2982     0.0000    96.0000 </r>
       <r>    -3.2001     0.0000    96.0000 </r>
       <r>    -3.1021     0.0000    96.0000 </r>
       <r>    -3.0041     0.0000    96.0000 </r>
       <r>    -2.9060     0.0000    96.0000 </r>
       <r>    -2.8080     0.0000    96.0000 </r>
       <r>    -2.7099     0.0000    96.0000 </r>
       <r>    -2.6119     0.0000    96.0000 </r>
       <r>    -2.5139     0.0000    96.0000 </r>
       <r>    -2.4158     0.0013    96.0001 </r>
       <r>    -2.3178     0.4820    96.0474 </r>
       <r>    -2.2197     1.9667    96.2402 </r>
       <r>    -2.1217     7.6202    96.9873 </r>
       <r>    -2.0237    17.6267    98.7154 </r>
       <r>    -1.9256    23.7191   101.0409 </r>
       <r>    -1.8276     9.3167   101.9543 </r>
       <r>    -1.7295     0.4679   102.0002 </r>
       <r>    -1.6315     1.0898   102.1070 </r>
       <r>    -1.5334     6.6334   102.7574 </r>
       <r>    -1.4354    12.6728   103.9998 </r>
       <r>    -1.3374    26.9605   106.6431 </r>
       <r>    -1.2393    40.4310   110.6070 </r>
       <r>    -1.1413    56.1125   116.1083 </r>
       <r>    -1.0432    30.1119   119.0605 </r>
       <r>    -0.9452    11.4233   120.1805 </r>
       <r>    -0.8472    13.1161   121.4664 </r>
       <r>    -0.7491    22.5811   123.6803 </r>
       <r>    -0.6511    28.0360   126.4289 </r>
       <r>    -0.5530    20.7354   128.4619 </r>
       <r>    -0.4550    20.6447   130.4859 </r>
       <r>    -0.3570    15.9267   132.0474 </r>
       <r>    -0.2589    42.6854   136.2323 </r>
       <r>    -0.1609    42.0455   140.3545 </r>
       <r>    -0.0628    40.9177   144.3661 </r>
       <r>     0.0352    42.9417   148.5761 </r>
       <r>     0.1333    24.0540   150.9344 </r>
       <r>     0.2313    49.7795   155.8149 </r>
       <r>     0.3293    44.0652   160.1350 </r>
       <r>     0.4274    38.9489   163.9536 </r>
       <r>     0.5254    36.8856   167.5700 </r>
       <r>     0.6235    21.4129   169.6693 </r>
       <r>     0.7215    17.0690   171.3428 </r>
       <r>     0.8195     6.8569   172.0150 </r>
       <r>     0.9176    11.6524   173.1574 </r>
       <r>     1.0156    11.4799   174.2829 </r>
       <r>     1.1137     4.5389   174.7279 </r>
       <r>     1.2117     0.4179   174.7689 </r>
       <r>     1.3097     1.3666   174.9029 </r>
       <r>     1.4078     4.2164   175.3163 </r>
       <r>     1.5058     4.3039   175.7382 </r>
       <r>     1.6039     1.3883   175.8743 </r>
       <r>     1.7019     0.0069   175.8750 </r>
       <r>     1.7999     0.0000   175.8750 </r>
       <r>     1.8980     0.1325   175.8880 </r>
       <r>     1.9960     1.0595   175.9919 </r>
       <r>     2.0941     0.0829   176.0000 </r>
       <r>     2.1921     0.0000   176.0000 </r>
       <r>     2.2902     0.0000   176.0000 </r>
       <r>     2.3882     0.0000   176.0000 </r>
       <r>     2.4862     0.0000   176.0000 </r>
       <r>     2.5843     0.0001   176.0000 </r>
       <r>     2.6823     0.1813   176.0178 </r>
       <r>     2.7804     1.1511   176.1306 </r>
       <r>     2.8784     2.7287   176.3982 </r>
       <r>     2.9764     6.3140   177.0172 </r>
       <r>     3.0745     9.9577   177.9935 </r>
       <r>     3.1725    13.3274   179.3001 </r>
       <r>     3.2706    11.9323   180.4699 </r>
       <r>     3.3686    10.0198   181.4523 </r>
       <r>     3.4666     3.6485   181.8100 </r>
       <r>     3.5647     1.8678   181.9931 </r>
       <r>     3.6627     0.0703   182.0000 </r>
       <r>     3.7608     0.0000   182.0000 </r>
       <r>     3.8588     0.0000   182.0000 </r>
       <r>     3.9569     0.0000   182.0000 </r>
       <r>     4.0549     0.0000   182.0000 </r>
       <r>     4.1529     0.0347   182.0034 </r>
       <r>     4.2510     5.9199   182.5838 </r>
       <r>     4.3490    39.9749   186.5030 </r>
       <r>     4.4471    34.8845   189.9231 </r>
       <r>     4.5451    19.9355   191.8776 </r>
       <r>     4.6431    18.6822   193.7092 </r>
       <r>     4.7412    18.7340   195.5459 </r>
       <r>     4.8392    23.3216   197.8324 </r>
       <r>     4.9373    18.4983   199.6460 </r>
       <r>     5.0353    14.6902   201.0862 </r>
       <r>     5.1333     7.3762   201.8094 </r>
       <r>     5.2314     2.0318   202.0086 </r>
       <r>     5.3294     1.0736   202.1139 </r>
       <r>     5.4275     0.5844   202.1712 </r>
       <r>     5.5255     3.8165   202.5453 </r>
       <r>     5.6236     2.5431   202.7947 </r>
       <r>     5.7216     8.7643   203.6539 </r>
       <r>     5.8196     9.9450   204.6289 </r>
       <r>     5.9177    16.4180   206.2386 </r>
       <r>     6.0157    13.9848   207.6097 </r>
       <r>     6.1138    12.5678   208.8418 </r>
       <r>     6.2118    23.3195   211.1281 </r>
       <r>     6.3098    21.5712   213.2430 </r>
       <r>     6.4079     9.8564   214.2093 </r>
       <r>     6.5059    14.1843   215.5999 </r>
       <r>     6.6040    19.7129   217.5326 </r>
       <r>     6.7020    19.7976   219.4736 </r>
       <r>     6.8000    27.7905   222.1982 </r>
       <r>     6.8981    29.6836   225.1084 </r>
       <r>     6.9961    32.8145   228.3256 </r>
       <r>     7.0942    20.4245   230.3280 </r>
       <r>     7.1922     5.9649   230.9128 </r>
       <r>     7.2902    23.8846   233.2545 </r>
       <r>     7.3883    21.4962   235.3620 </r>
       <r>     7.4863    21.6082   237.4805 </r>
       <r>     7.5844    13.3716   238.7915 </r>
       <r>     7.6824    10.4804   239.8190 </r>
       <r>     7.7805     0.7709   239.8946 </r>
       <r>     7.8785     1.0259   239.9951 </r>
       <r>     7.9765     0.0495   240.0000 </r>
       <r>     8.0746     0.0000   240.0000 </r>
       <r>     8.1726     0.0000   240.0000 </r>
       <r>     8.2707     0.0000   240.0000 </r>
       <r>     8.3687     0.0000   240.0000 </r>
       <r>     8.4667     0.0000   240.0000 </r>
       <r>     8.5648     0.0000   240.0000 </r>
       <r>     8.6628     0.0000   240.0000 </r>
       <r>     8.7609     0.0000   240.0000 </r>
       <r>     8.8589     0.0000   240.0000 </r>
       <r>     8.9569     0.0000   240.0000 </r>
       <r>     9.0550     0.0000   240.0000 </r>
       <r>     9.1530     0.0000   240.0000 </r>
      </set>
     </set>
    </array>
   </total>
  </dos>
 </calculation>
 <structure name="finalpos" >
  <crystal>
   <varray name="basis" >
    <v>      12.63792392       0.46193271       0.48523020 </v>
    <v>       0.22961051       6.33455753       0.28803824 </v>
    <v>       0.50409538       0.59563642      12.54874888 </v>
   </varray>
   <i name="volume">    999.68309561 </i>
   <varray name="rec_basis" >
    <v>       0.07934435      -0.00273699      -0.00305743 </v>
    <v>      -0.00550940       0.15839573      -0.00729706 </v>
    <v>      -0.00294160      -0.00352991       0.07997494 </v>
   </varray>
  </crystal>
  <varray name="positions" >
   <v>       0.47598005       0.04898617       0.99861071 </v>
   <v>       0.47598172       0.04899056       0.49861659 </v>
   <v>       0.97597919       0.04898459       0.99860918 </v>
   <v>       0.97598242       0.04899235       0.49861860 </v>
   <v>       0.03111091       0.77472323       0.43298993 </v>
   <v>       0.11400592       0.95121462       0.06895216 </v>
   <v>       0.04555078       0.18175042       0.11367046 </v>
   <v>       0.41378572       0.90058502       0.38429533 </v>
   <v>       0.41118443       0.17365353       0.99729865 </v>
   <v>       0.03111152       0.77472248       0.93298624 </v>
   <v>       0.11400629       0.95121413       0.56895647 </v>
   <v>       0.04555251       0.18174537       0.61367433 </v>
   <v>       0.41378734       0.90058406       0.88429404 </v>
   <v>       0.41118435       0.17365107       0.49730016 </v>
   <v>       0.53111093       0.77472471       0.43298975 </v>
   <v>       0.61400699       0.95121316       0.06895327 </v>
   <v>       0.54555185       0.18175072       0.11367208 </v>
   <v>       0.91378505       0.90058361       0.38429555 </v>
   <v>       0.91118414       0.17365203       0.99729801 </v>
   <v>       0.53111121       0.77472387       0.93298690 </v>
   <v>       0.61400566       0.95121469       0.56895604 </v>
   <v>       0.54555167       0.18174498       0.61367323 </v>
   <v>       0.91378723       0.90058242       0.88429351 </v>
   <v>       0.91118378       0.17365186       0.49730093 </v>
   <v>      -0.01478378       0.48982047       0.24226795 </v>
   <v>       0.25428182       0.01935014       0.25754344 </v>
   <v>       0.23359440       0.54777380       0.00485985 </v>
   <v>      -0.01478517       0.48982413       0.74226225 </v>
   <v>       0.25428447       0.01935003       0.75753967 </v>
   <v>       0.23359430       0.54777436       0.50486030 </v>
   <v>       0.48521594       0.48982083       0.24226781 </v>
   <v>       0.75428262       0.01934943       0.25754480 </v>
   <v>       0.73359386       0.54777420       0.00485999 </v>
   <v>       0.48521478       0.48982455       0.74226283 </v>
   <v>       0.75428295       0.01934954       0.75753898 </v>
   <v>       0.73359384       0.54777457       0.50486026 </v>
   <v>       0.05092693       0.06159688       0.06387190 </v>
   <v>       0.47372615       0.89707547       0.43483844 </v>
   <v>       0.05092545       0.06159333       0.56387267 </v>
   <v>       0.47372718       0.89707597       0.93483674 </v>
   <v>       0.55092661       0.06159595       0.06387184 </v>
   <v>       0.97372582       0.89707330       0.43483833 </v>
   <v>       0.55092554       0.06159348       0.56387274 </v>
   <v>       0.97372740       0.89707646       0.93483699 </v>
   <v>       0.24452192       0.49391455       0.24721316 </v>
   <v>       0.24452249       0.49391566       0.74721006 </v>
   <v>       0.74452214       0.49391365       0.24721334 </v>
   <v>       0.74452182       0.49391562       0.74721027 </v>
  </varray>
 </structure>
</modeling>
