cubic-FASnI3                            
           1
    12.614800    0.000000    0.000000
     0.000000    6.307400    0.000000
     0.000000    0.000000   12.614800
   C    H    I    N    Sn
     4    20    12     8     4
Direct configuration=     1
   0.47334637  0.05432168  0.99921489
   0.47334637  0.05432168  0.49921489
   0.97334637  0.05432168  0.99921489
   0.97334637  0.05432168  0.49921489
   0.03449846  0.81080160  0.41236526
   0.09427120  0.93491789  0.08834172
   0.02676246  0.14954103  0.14159976
   0.42733419  0.94334886  0.35717950
   0.41226295  0.17605697  0.99841312
   0.03449846  0.81080160  0.91236526
   0.09427120  0.93491789  0.58834172
   0.02676246  0.14954103  0.64159976
   0.42733419  0.94334886  0.85717950
   0.41226295  0.17605697  0.49841312
   0.53449846  0.81080160  0.41236526
   0.59427120  0.93491789  0.08834172
   0.52676246  0.14954103  0.14159976
   0.92733419  0.94334886  0.35717950
   0.91226295  0.17605697  0.99841312
   0.53449846  0.81080160  0.91236526
   0.59427120  0.93491789  0.58834172
   0.52676246  0.14954103  0.64159976
   0.92733419  0.94334886  0.85717950
   0.91226295  0.17605697  0.49841312
   0.00000000  0.50000000  0.25000000
   0.25000000  0.00000000  0.25000000
   0.25000000  0.50000000  0.00000000
   0.00000000  0.50000000  0.75000000
   0.25000000  0.00000000  0.75000000
   0.25000000  0.50000000  0.50000000
   0.50000000  0.50000000  0.25000000
   0.75000000  0.00000000  0.25000000
   0.75000000  0.50000000  0.00000000
   0.50000000  0.50000000  0.75000000
   0.75000000  0.00000000  0.75000000
   0.75000000  0.50000000  0.50000000
   0.03436811  0.04122229  0.08251666
   0.48104404  0.93023118  0.41678077
   0.03436811  0.04122229  0.58251666
   0.48104404  0.93023118  0.91678077
   0.53436811  0.04122229  0.08251666
   0.98104404  0.93023118  0.41678077
   0.53436811  0.04122229  0.58251666
   0.98104404  0.93023118  0.91678077
   0.25000000  0.50000000  0.25000000
   0.25000000  0.50000000  0.75000000
   0.75000000  0.50000000  0.25000000
   0.75000000  0.50000000  0.75000000
cubic-FASnI3                            
           1
    12.676162   -0.040486    0.058210
    -0.020243    6.339738    0.031208
     0.058210    0.062416   12.702268
   C    H    I    N    Sn
     4    20    12     8     4
Direct configuration=     2
   0.47314807  0.05468937  0.99924481
   0.47314830  0.05468981  0.49924576
   0.97314798  0.05468930  0.99924469
   0.97314824  0.05468987  0.49924575
   0.03554507  0.80832534  0.41218916
   0.09546881  0.93288003  0.08852795
   0.02663929  0.15172768  0.14282466
   0.42629113  0.94355792  0.35593574
   0.41138664  0.17780683  0.99842832
   0.03554484  0.80832581  0.91218909
   0.09546861  0.93288044  0.58852801
   0.02663931  0.15172728  0.64282449
   0.42629134  0.94355788  0.85593589
   0.41138665  0.17780687  0.49842843
   0.53554506  0.80832534  0.41218915
   0.59546877  0.93288008  0.08852797
   0.52663928  0.15172763  0.14282464
   0.92629113  0.94355793  0.35593575
   0.91138662  0.17780681  0.99842831
   0.53554487  0.80832578  0.91218908
   0.59546859  0.93288046  0.58852802
   0.52663931  0.15172728  0.64282448
   0.92629135  0.94355787  0.85593593
   0.91138664  0.17780685  0.49842843
   0.00003103  0.49926214  0.24970975
   0.25038437 -0.00008280  0.25028980
   0.24957591  0.50086016 -0.00000488
   0.00003099  0.49926213  0.74970955
   0.25038437 -0.00008273  0.75028956
   0.24957590  0.50086010  0.49999575
   0.50003102  0.49926212  0.24970977
   0.75038387 -0.00008277  0.25028979
   0.74957544  0.50086016 -0.00000490
   0.50003100  0.49926213  0.74970951
   0.75038392 -0.00008275  0.75028958
   0.74957538  0.50086006  0.49999576
   0.03425818  0.04096945  0.08247184
   0.48112425  0.93051591  0.41679523
   0.03425820  0.04096963  0.58247234
   0.48112421  0.93051601  0.91679469
   0.53425814  0.04096953  0.08247191
   0.98112421  0.93051599  0.41679527
   0.53425816  0.04096981  0.58247238
   0.98112413  0.93051595  0.91679467
   0.25003574  0.49992884  0.24999877
   0.25003574  0.49992881  0.74999866
   0.75003552  0.49992882  0.24999876
   0.75003555  0.49992881  0.74999867
cubic-FASnI3                            
           1
    12.642816   -0.018485    0.026577
    -0.009243    6.322165    0.014249
     0.026577    0.028497   12.654736
   C    H    I    N    Sn
     4    20    12     8     4
Direct configuration=     3
   0.47325507  0.05449142  0.99922866
   0.47325518  0.05449162  0.49922910
   0.97325503  0.05449139  0.99922860
   0.97325515  0.05449165  0.49922909
   0.03498076  0.80965961  0.41228351
   0.09482336  0.93397867  0.08842771
   0.02670704  0.15055237  0.14216618
   0.42685196  0.94344189  0.35660469
   0.41185908  0.17686386  0.99842027
   0.03498066  0.80965983  0.91228348
   0.09482327  0.93397886  0.58842773
   0.02670705  0.15055219  0.64216610
   0.42685205  0.94344187  0.85660476
   0.41185908  0.17686388  0.49842032
   0.53498076  0.80965961  0.41228351
   0.59482335  0.93397869  0.08842772
   0.52670704  0.15055235  0.14216617
   0.92685195  0.94344189  0.35660469
   0.91185907  0.17686385  0.99842027
   0.53498067  0.80965981  0.91228347
   0.59482326  0.93397887  0.58842774
   0.52670705  0.15055219  0.64216609
   0.92685206  0.94344186  0.85660478
   0.91185907  0.17686387  0.49842032
   0.00001417  0.49965943  0.24986549
   0.25017729 -0.00003782  0.25013424
   0.24980450  0.50039655 -0.00000216
   0.00001415  0.49965942  0.74986540
   0.25017729 -0.00003780  0.75013413
   0.24980450  0.50039652  0.49999814
   0.50001417  0.49965942  0.24986551
   0.75017706 -0.00003781  0.25013423
   0.74980429  0.50039655 -0.00000217
   0.50001415  0.49965942  0.74986538
   0.75017708 -0.00003780  0.75013414
   0.74980426  0.50039651  0.49999814
   0.03431774  0.04110630  0.08249542
   0.48108066  0.93036176  0.41678800
   0.03431775  0.04110638  0.58249565
   0.48108064  0.93036180  0.91678775
   0.53431772  0.04110633  0.08249545
   0.98108064  0.93036180  0.41678802
   0.53431773  0.04110647  0.58249567
   0.98108061  0.93036178  0.91678774
   0.25001647  0.49996718  0.24999943
   0.25001647  0.49996717  0.74999938
   0.75001637  0.49996717  0.24999942
   0.75001638  0.49996717  0.74999938
cubic-FASnI3                            
           1
    12.643160   -0.020726    0.062621
    -0.010362    6.323083    0.033623
     0.062673    0.067293   12.671129
   C    H    I    N    Sn
     4    20    12     8     4
Direct configuration=     4
   0.47321635  0.05445289  0.99918726
   0.47321618  0.05445256  0.49918694
   0.97321639  0.05445288  0.99918730
   0.97321620  0.05445256  0.49918696
   0.03480870  0.80995031  0.41225808
   0.09470020  0.93425641  0.08844333
   0.02674302  0.15018919  0.14192363
   0.42701754  0.94341524  0.35679337
   0.41170695  0.17716381  0.99844396
   0.03480870  0.80995025  0.91225797
   0.09470023  0.93425643  0.58844343
   0.02674303  0.15018958  0.64192394
   0.42701735  0.94341521  0.85679303
   0.41170700  0.17716385  0.49844412
   0.53480872  0.80995026  0.41225808
   0.59470017  0.93425646  0.08844335
   0.52674301  0.15018927  0.14192368
   0.92701753  0.94341525  0.35679336
   0.91170693  0.17716382  0.99844395
   0.53480873  0.80995020  0.91225797
   0.59470018  0.93425654  0.58844344
   0.52674302  0.15018967  0.64192397
   0.92701732  0.94341519  0.85679300
   0.91170696  0.17716392  0.49844413
   0.00005780  0.49888612  0.24957268
   0.25057693 -0.00014525  0.25042323
   0.24937774  0.50126098 -0.00000745
   0.00005782  0.49888610  0.74957250
   0.25057691 -0.00014526  0.75042303
   0.24937775  0.50126095  0.49999296
   0.50005783  0.49888609  0.24957272
   0.75057668 -0.00014526  0.25042325
   0.74937752  0.50126102 -0.00000743
   0.50005780  0.49888616  0.74957246
   0.75057670 -0.00014530  0.75042304
   0.74937747  0.50126093  0.49999294
   0.03460658  0.04135319  0.08308891
   0.48102295  0.92976527  0.41628625
   0.03460675  0.04135295  0.58308927
   0.48102307  0.92976511  0.91628595
   0.53460662  0.04135308  0.08308896
   0.98102292  0.92976521  0.41628618
   0.53460681  0.04135281  0.58308918
   0.98102310  0.92976496  0.91628589
   0.25005328  0.49989360  0.24999853
   0.25005327  0.49989359  0.74999844
   0.75005318  0.49989359  0.24999853
   0.75005319  0.49989362  0.74999844
cubic-FASnI3                            
           1
    12.643020   -0.019815    0.047958
    -0.009907    6.322709    0.025741
     0.047989    0.051511   12.664460
   C    H    I    N    Sn
     4    20    12     8     4
Direct configuration=     5
   0.47323205  0.05446846  0.99920401
   0.47323200  0.05446835  0.49920400
   0.97323206  0.05446844  0.99920401
   0.97323200  0.05446836  0.49920401
   0.03487866  0.80983203  0.41226840
   0.09475031  0.93414350  0.08843701
   0.02672811  0.15033631  0.14202199
   0.42695040  0.94342652  0.35671689
   0.41176885  0.17704188  0.99843435
   0.03487861  0.80983208  0.91226831
   0.09475029  0.93414358  0.58843708
   0.02672813  0.15033647  0.64202215
   0.42695032  0.94342650  0.85671671
   0.41176888  0.17704192  0.49843446
   0.53487867  0.80983200  0.41226839
   0.59475028  0.93414354  0.08843703
   0.52672811  0.15033635  0.14202202
   0.92695039  0.94342653  0.35671688
   0.91176883  0.17704188  0.99843434
   0.53487864  0.80983204  0.91226831
   0.59475026  0.93414365  0.58843709
   0.52672812  0.15033652  0.64202216
   0.92695031  0.94342648  0.85671670
   0.91176886  0.17704196  0.49843447
   0.00003974  0.49919993  0.24969122
   0.25041469 -0.00010090  0.25030621
   0.24955131  0.50090941 -0.00000525
   0.00003975  0.49919992  0.74969107
   0.25041468 -0.00010089  0.75030604
   0.24955131  0.50090939  0.49999511
   0.50003976  0.49919991  0.24969125
   0.75041445 -0.00010089  0.25030622
   0.74955109  0.50090944 -0.00000525
   0.50003974  0.49919995  0.74969104
   0.75041448 -0.00010092  0.75030605
   0.74955105  0.50090937  0.49999509
   0.03448976  0.04125420  0.08284827
   0.48104587  0.93000666  0.41648968
   0.03448986  0.04125410  0.58284857
   0.48104593  0.93000658  0.91648939
   0.53448978  0.04125415  0.08284831
   0.98104584  0.93000663  0.41648964
   0.53448989  0.04125404  0.58284853
   0.98104594  0.93000648  0.91648936
   0.25003831  0.49992352  0.24999889
   0.25003830  0.49992351  0.74999882
   0.75003821  0.49992351  0.24999889
   0.75003822  0.49992353  0.74999882
cubic-FASnI3                            
           1
    12.639856   -0.020466    0.065962
    -0.010233    6.321663    0.035703
     0.066045    0.071488   12.663019
   C    H    I    N    Sn
     4    20    12     8     4
Direct configuration=     6
   0.47337301  0.05417063  0.99921714
   0.47337293  0.05417048  0.49921709
   0.97337303  0.05417062  0.99921715
   0.97337294  0.05417048  0.49921711
   0.03478870  0.80995892  0.41224009
   0.09468959  0.93431117  0.08846436
   0.02674457  0.15018553  0.14190540
   0.42703480  0.94341547  0.35682183
   0.41174162  0.17708704  0.99844521
   0.03478874  0.80995875  0.91223996
   0.09468967  0.93431110  0.58846448
   0.02674459  0.15018590  0.64190571
   0.42703462  0.94341544  0.85682150
   0.41174166  0.17708708  0.49844537
   0.53478871  0.80995888  0.41224010
   0.59468958  0.93431118  0.08846439
   0.52674456  0.15018560  0.14190544
   0.92703477  0.94341548  0.35682181
   0.91174160  0.17708703  0.99844520
   0.53478875  0.80995875  0.91223997
   0.59468965  0.93431115  0.58846448
   0.52674459  0.15018594  0.64190571
   0.92703460  0.94341541  0.85682147
   0.91174163  0.17708715  0.49844538
   0.00006581  0.49874072  0.24951775
   0.25065352 -0.00016542  0.25047834
   0.24929373  0.50143166 -0.00000846
   0.00006582  0.49874070  0.74951755
   0.25065350 -0.00016543  0.75047812
   0.24929374  0.50143163  0.49999192
   0.50006583  0.49874069  0.24951778
   0.75065328 -0.00016543  0.25047835
   0.74929352  0.50143169 -0.00000844
   0.50006581  0.49874076  0.74951752
   0.75065331 -0.00016546  0.75047813
   0.74929348  0.50143161  0.49999191
   0.03441948  0.04129298  0.08276313
   0.48102230  0.93013456  0.41656864
   0.03441948  0.04129286  0.58276332
   0.48102238  0.93013466  0.91656846
   0.53441948  0.04129294  0.08276315
   0.98102228  0.93013453  0.41656861
   0.53441951  0.04129284  0.58276327
   0.98102239  0.93013460  0.91656844
   0.25006094  0.49987828  0.24999828
   0.25006093  0.49987828  0.74999819
   0.75006084  0.49987827  0.24999828
   0.75006085  0.49987830  0.74999818
cubic-FASnI3                            
           1
    12.630364   -0.022421    0.119972
    -0.011211    6.318523    0.065589
     0.120214    0.131419   12.658696
   C    H    I    N    Sn
     4    20    12     8     4
Direct configuration=     7
   0.47379589  0.05327690  0.99925663
   0.47379575  0.05327664  0.49925647
   0.97379595  0.05327691  0.99925665
   0.97379580  0.05327660  0.49925652
   0.03451888  0.81033989  0.41215526
   0.09450728  0.93481398  0.08854628
   0.02679442  0.14973423  0.14155585
   0.42728760  0.94338136  0.35713635
   0.41165985  0.17722242  0.99847783
   0.03451917  0.81033906  0.91215499
   0.09450767  0.93481345  0.58854654
   0.02679448  0.14973523  0.64155663
   0.42728714  0.94338128  0.85713558
   0.41165993  0.17722250  0.49847811
   0.53451891  0.81033984  0.41215527
   0.59450732  0.93481390  0.08854633
   0.52679442  0.14973438  0.14155595
   0.92728754  0.94338137  0.35713629
   0.91165983  0.17722240  0.99847780
   0.53451914  0.81033918  0.91215501
   0.59450767  0.93481346  0.58854653
   0.52679447  0.14973523  0.64155659
   0.92728706  0.94338124  0.85713548
   0.91165988  0.17722262  0.49847813
   0.00014475  0.49736449  0.24899823
   0.25136943 -0.00036058  0.25099391
   0.24852087  0.50299860 -0.00001821
   0.00014478  0.49736447  0.74899788
   0.25136940 -0.00036064  0.75099355
   0.24852088  0.50299855  0.49998223
   0.50014476  0.49736444  0.24899829
   0.75136919 -0.00036064  0.25099395
   0.74852068  0.50299864 -0.00001818
   0.50014474  0.49736460  0.74899785
   0.75136925 -0.00036068  0.75099356
   0.74852062  0.50299853  0.49998221
   0.03420897  0.04141015  0.08250790
   0.48095127  0.93051758  0.41680535
   0.03420865  0.04140997  0.58250773
   0.48095139  0.93051823  0.91680550
   0.53420891  0.04141011  0.08250787
   0.98095127  0.93051753  0.41680534
   0.53420867  0.04141004  0.58250766
   0.98095141  0.93051828  0.91680551
   0.25012884  0.49974255  0.24999645
   0.25012882  0.49974255  0.74999630
   0.75012875  0.49974254  0.24999645
   0.75012876  0.49974260  0.74999629
cubic-FASnI3                            
           1
    12.626295   -0.023259    0.143129
    -0.011631    6.317177    0.078402
     0.143438    0.157113   12.656842
   C    H    I    N    Sn
     4    20    12     8     4
Direct configuration=     8
   0.47397723  0.05289343  0.99927370
   0.47397707  0.05289312  0.49927350
   0.97397730  0.05289345  0.99927373
   0.97397713  0.05289306  0.49927356
   0.03440328  0.81050361  0.41211898
   0.09442892  0.93502930  0.08858125
   0.02681644  0.14954207  0.14140628
   0.42739549  0.94336548  0.35727083
   0.41162471  0.17728035  0.99849183
   0.03440368  0.81050251  0.91211865
   0.09442945  0.93502858  0.58858156
   0.02681651  0.14954334  0.64140726
   0.42739490  0.94336539  0.85726987
   0.41162481  0.17728044  0.49849216
   0.53440331  0.81050356  0.41211900
   0.59442899  0.93502919  0.08858130
   0.52681643  0.14954226  0.14140641
   0.92739541  0.94336550  0.35727075
   0.91162470  0.17728032  0.99849180
   0.53440363  0.81050267  0.91211868
   0.59442946  0.93502857  0.58858155
   0.52681650  0.14954332  0.64140721
   0.92739481  0.94336534  0.85726974
   0.91162475  0.17728059  0.49849218
   0.00017952  0.49677626  0.24877665
   0.25167565 -0.00044628  0.25121394
   0.24818934  0.50367069 -0.00002256
   0.00017956  0.49677623  0.74877623
   0.25167562 -0.00044635  0.75121352
   0.24818935  0.50367063  0.49997791
   0.50017953  0.49677620  0.24877672
   0.75167542 -0.00044635  0.25121399
   0.74818915  0.50367073 -0.00002252
   0.50017951  0.49677639  0.74877621
   0.75167548 -0.00044640  0.75121353
   0.74818908  0.50367061  0.49997788
   0.03411912  0.04146141  0.08239869
   0.48092038  0.93068090  0.41690663
   0.03411866  0.04146122  0.58239837
   0.48092050  0.93068180  0.91690692
   0.53411904  0.04146138  0.08239864
   0.98092038  0.93068085  0.41690662
   0.53411868  0.04146132  0.58239830
   0.98092053  0.93068188  0.91690694
   0.25015797  0.49968434  0.24999568
   0.25015794  0.49968435  0.74999551
   0.75015789  0.49968433  0.24999568
   0.75015790  0.49968441  0.74999549
cubic-FASnI3                            
           1
    12.624232   -0.023924    0.155519
    -0.011962    6.316351    0.085075
     0.155881    0.170511   12.654205
   C    H    I    N    Sn
     4    20    12     8     4
Direct configuration=     9
   0.47392313  0.05297218  0.99926533
   0.47392295  0.05297182  0.49926508
   0.97392321  0.05297221  0.99926537
   0.97392301  0.05297176  0.49926513
   0.03436726  0.81053985  0.41209980
   0.09440869  0.93510495  0.08860303
   0.02680613  0.14946839  0.14130912
   0.42743486  0.94340430  0.35735713
   0.41168349  0.17715174  0.99849826
   0.03436765  0.81053877  0.91209946
   0.09440920  0.93510425  0.58860335
   0.02680621  0.14946961  0.64131009
   0.42743431  0.94340420  0.85735619
   0.41168359  0.17715183  0.49849860
   0.53436729  0.81053980  0.41209982
   0.59440875  0.93510484  0.08860308
   0.52680612  0.14946857  0.14130925
   0.92743478  0.94340432  0.35735705
   0.91168347  0.17715171  0.99849822
   0.53436760  0.81053894  0.91209949
   0.59440921  0.93510424  0.58860334
   0.52680619  0.14946958  0.64131003
   0.92743421  0.94340414  0.85735606
   0.91168353  0.17715198  0.49849862
   0.00019872  0.49645605  0.24865624
   0.25184257 -0.00049339  0.25133307
   0.24800245  0.50404949 -0.00002496
   0.00019877  0.49645602  0.74865580
   0.25184254 -0.00049347  0.75133262
   0.24800246  0.50404944  0.49997551
   0.50019874  0.49645599  0.24865633
   0.75184232 -0.00049347  0.25133312
   0.74800224  0.50404954 -0.00002492
   0.50019871  0.49645620  0.74865578
   0.75184239 -0.00049353  0.75133263
   0.74800217  0.50404941  0.49997549
   0.03410296  0.04139684  0.08231479
   0.48094273  0.93074095  0.41700481
   0.03410253  0.04139667  0.58231455
   0.48094284  0.93074178  0.91700502
   0.53410288  0.04139682  0.08231475
   0.98094272  0.93074091  0.41700480
   0.53410255  0.04139678  0.58231448
   0.98094286  0.93074186  0.91700503
   0.25017507  0.49965027  0.24999532
   0.25017505  0.49965028  0.74999514
   0.75017499  0.49965026  0.24999532
   0.75017500  0.49965034  0.74999512
cubic-FASnI3                            
           1
    12.618043   -0.025920    0.192688
    -0.012956    6.313874    0.105095
     0.193209    0.210704   12.646293
   C    H    I    N    Sn
     4    20    12     8     4
Direct configuration=    10
   0.47376085  0.05320850  0.99924026
   0.47376062  0.05320799  0.49923985
   0.97376093  0.05320856  0.99924031
   0.97376064  0.05320795  0.49923988
   0.03425925  0.81064867  0.41204230
   0.09434791  0.93533176  0.08866833
   0.02677547  0.14924792  0.14101773
   0.42755274  0.94352023  0.35761591
   0.41185981  0.17676585  0.99851757
   0.03425960  0.81064768  0.91204192
   0.09434838  0.93533115  0.58866868
   0.02677557  0.14924902  0.64101865
   0.42755227  0.94352011  0.85761503
   0.41185992  0.17676595  0.49851795
   0.53425928  0.81064865  0.41204233
   0.59434797  0.93533165  0.08866838
   0.52677546  0.14924808  0.14101784
   0.92755267  0.94352025  0.35761583
   0.91185981  0.17676579  0.99851753
   0.53425954  0.81064787  0.91204196
   0.59434839  0.93533114  0.58866867
   0.52677555  0.14924896  0.64101857
   0.92755219  0.94352003  0.85761490
   0.91185987  0.17676608  0.49851798
   0.00025667  0.49549607  0.24829540
   0.25234306 -0.00063544  0.25169012
   0.24744174  0.50518602 -0.00003221
   0.00025673  0.49549604  0.74829488
   0.25234303 -0.00063555  0.75168958
   0.24744176  0.50518596  0.49996826
   0.50025668  0.49549599  0.24829550
   0.75234275 -0.00063554  0.25169018
   0.74744148  0.50518606 -0.00003216
   0.50025666  0.49549625  0.74829485
   0.75234284 -0.00063561  0.75168960
   0.74744140  0.50518592  0.49996824
   0.03405472  0.04120361  0.08206321
   0.48100951  0.93092049  0.41729926
   0.03405439  0.04120351  0.58206318
   0.48100956  0.93092112  0.91729925
   0.53405463  0.04120362  0.08206320
   0.98100948  0.93092049  0.41729926
   0.53405440  0.04120366  0.58206310
   0.98100958  0.93092121  0.91729923
   0.25022639  0.49954804  0.24999423
   0.25022636  0.49954806  0.74999402
   0.75022629  0.49954803  0.24999424
   0.75022630  0.49954814  0.74999400
cubic-FASnI3                            
           1
    12.605666   -0.029912    0.267027
    -0.014943    6.308920    0.145133
     0.267864    0.291089   12.630469
   C    H    I    N    Sn
     4    20    12     8     4
Direct configuration=    11
   0.47343631  0.05368153  0.99919029
   0.47343597  0.05368073  0.49918955
   0.97343641  0.05368166  0.99919037
   0.97343594  0.05368073  0.49918954
   0.03404347  0.81086706  0.41192750
   0.09422595  0.93578471  0.08879866
   0.02671580  0.14881050  0.14043539
   0.42778712  0.94374897  0.35813278
   0.41221246  0.17599363  0.99855641
   0.03404375  0.81086624  0.91192704
   0.09422634  0.93578427  0.58879907
   0.02671595  0.14881133  0.64043623
   0.42778682  0.94374880  0.85813202
   0.41221256  0.17599373  0.49855685
   0.53404349  0.81086709  0.41192755
   0.59422600  0.93578460  0.08879872
   0.52671579  0.14881062  0.14043549
   0.92778705  0.94374900  0.35813271
   0.91221247  0.17599353  0.99855636
   0.53404368  0.81086647  0.91192710
   0.59422635  0.93578424  0.58879905
   0.52671593  0.14881123  0.64043611
   0.92778674  0.94374870  0.85813189
   0.91221254  0.17599382  0.49855689
   0.00037458  0.49357993  0.24757589
   0.25334241 -0.00092382  0.25240223
   0.24632000  0.50745971 -0.00004702
   0.00037466  0.49357988  0.74757521
   0.25334239 -0.00092399  0.75240152
   0.24632003  0.50745965  0.49995345
   0.50037458  0.49357981  0.24757603
   0.75334199 -0.00092396  0.25240232
   0.74631962  0.50745975 -0.00004696
   0.50037457  0.49358018  0.74757518
   0.75334212 -0.00092406  0.75240157
   0.74631953  0.50745958  0.49995342
   0.03395964  0.04082016  0.08156056
   0.48114144  0.93127602  0.41788762
   0.03395952  0.04082021  0.58156098
   0.48114136  0.93127626  0.91788715
   0.53395955  0.04082025  0.08156062
   0.98114136  0.93127611  0.41788763
   0.53395951  0.04082042  0.58156088
   0.98114138  0.93127635  0.91788709
   0.25032907  0.49934355  0.24999208
   0.25032903  0.49934358  0.74999182
   0.75032893  0.49934354  0.24999209
   0.75032894  0.49934368  0.74999179
cubic-FASnI3                            
           1
    12.604519   -0.035553    0.289824
    -0.017761    6.308434    0.157267
     0.290887    0.315596   12.617352
   C    H    I    N    Sn
     4    20    12     8     4
Direct configuration=    12
   0.47339386  0.05380401  0.99923194
   0.47339372  0.05380367  0.49923182
   0.97339393  0.05380408  0.99923195
   0.97339369  0.05380370  0.49923185
   0.03413301  0.81071963  0.41196737
   0.09433569  0.93557165  0.08878819
   0.02662245  0.14858652  0.14006696
   0.42789092  0.94399520  0.35847855
   0.41226820  0.17583494  0.99855744
   0.03413314  0.81071914  0.91196691
   0.09433591  0.93557150  0.58878861
   0.02662260  0.14858706  0.64006762
   0.42789073  0.94399504  0.85847793
   0.41226828  0.17583500  0.49855784
   0.53413305  0.81071963  0.41196742
   0.59433569  0.93557162  0.08878825
   0.52662243  0.14858661  0.14006704
   0.92789085  0.94399523  0.35847849
   0.91226821  0.17583484  0.99855740
   0.53413310  0.81071930  0.91196697
   0.59433590  0.93557152  0.58878858
   0.52662256  0.14858700  0.64006752
   0.92789067  0.94399494  0.85847784
   0.91226826  0.17583507  0.49855789
   0.00041343  0.49293982  0.24733857
   0.25367845 -0.00101816  0.25263596
   0.24590867  0.50829349 -0.00005193
   0.00041353  0.49293977  0.74733793
   0.25367843 -0.00101836  0.75263528
   0.24590872  0.50829345  0.49994850
   0.50041345  0.49293969  0.24733872
   0.75367793 -0.00101831  0.25263606
   0.74590819  0.50829353 -0.00005185
   0.50041342  0.49294010  0.74733790
   0.75367807 -0.00101844  0.75263534
   0.74590810  0.50829336  0.49994846
   0.03383017  0.04101871  0.08144057
   0.48104195  0.93143713  0.41796735
   0.03383003  0.04101870  0.58144090
   0.48104189  0.93143742  0.91796703
   0.53383010  0.04101874  0.08144063
   0.98104186  0.93143718  0.41796733
   0.53383006  0.04101884  0.58144081
   0.98104193  0.93143750  0.91796697
   0.25037157  0.49925869  0.24999108
   0.25037152  0.49925872  0.74999084
   0.75037139  0.49925868  0.24999109
   0.75037140  0.49925883  0.74999082
cubic-FASnI3                            
           1
    12.603039   -0.042839    0.319262
    -0.021399    6.307807    0.172937
     0.320618    0.347243   12.600414
   C    H    I    N    Sn
     4    20    12     8     4
Direct configuration=    13
   0.47333897  0.05396193  0.99928575
   0.47333909  0.05396218  0.49928642
   0.97333902  0.05396193  0.99928564
   0.97333905  0.05396225  0.49928649
   0.03424851  0.81052913  0.41201890
   0.09447738  0.93529668  0.08877466
   0.02650269  0.14829901  0.13959114
   0.42802422  0.94431157  0.35892501
   0.41234013  0.17563006  0.99855884
   0.03424845  0.81052907  0.91201843
   0.09447738  0.93529691  0.58877509
   0.02650284  0.14829919  0.63959159
   0.42802417  0.94431143  0.85892458
   0.41234018  0.17563006  0.49855919
   0.53424857  0.81052910  0.41201895
   0.59447731  0.93529675  0.08877472
   0.52650267  0.14829906  0.13959120
   0.92802416  0.94431160  0.35892497
   0.91234015  0.17562996  0.99855882
   0.53424845  0.81052914  0.91201848
   0.59447734  0.93529698  0.58877505
   0.52650280  0.14829916  0.63959149
   0.92802414  0.94431132  0.85892452
   0.91234018  0.17563011  0.49855924
   0.00046398  0.49211438  0.24703247
   0.25411186 -0.00114076  0.25293744
   0.24537771  0.50936983 -0.00005835
   0.00046410  0.49211432  0.74703188
   0.25411184 -0.00114101  0.75293681
   0.24537778  0.50936980  0.49994201
   0.50046400  0.49211424  0.24703264
   0.75411121 -0.00114093  0.25293756
   0.74537710  0.50936986 -0.00005824
   0.50046397  0.49211469  0.74703185
   0.75411137 -0.00114109  0.75293689
   0.74537701  0.50936969  0.49994197
   0.03366330  0.04127559  0.08128551
   0.48091331  0.93164468  0.41807045
   0.03366313  0.04127550  0.58128571
   0.48091329  0.93164503  0.91807034
   0.53366326  0.04127553  0.08128557
   0.98091322  0.93164468  0.41807039
   0.53366321  0.04127554  0.58128564
   0.98091335  0.93164509  0.91807028
   0.25042644  0.49914915  0.24998980
   0.25042638  0.49914919  0.74998959
   0.75042620  0.49914914  0.24998981
   0.75042622  0.49914931  0.74998957
cubic-FASnI3                            
           1
    12.604425   -0.049217    0.334242
    -0.024569    6.307686    0.180022
     0.335875    0.361681   12.585761
   C    H    I    N    Sn
     4    20    12     8     4
Direct configuration=    14
   0.47340045  0.05380100  0.99925311
   0.47340056  0.05380119  0.49925372
   0.97340048  0.05380099  0.99925298
   0.97340053  0.05380120  0.49925377
   0.03433542  0.81054894  0.41216402
   0.09448627  0.93513413  0.08866395
   0.02632548  0.14833023  0.13927180
   0.42798500  0.94472231  0.35922122
   0.41223037  0.17579090  0.99854568
   0.03433525  0.81054915  0.91216357
   0.09448615  0.93513456  0.58866437
   0.02632563  0.14833011  0.63927207
   0.42798507  0.94472220  0.85922095
   0.41223040  0.17579090  0.49854601
   0.53433549  0.81054889  0.41216408
   0.59448619  0.93513422  0.08866401
   0.52632545  0.14833024  0.13927184
   0.92798493  0.94472235  0.35922118
   0.91223039  0.17579081  0.99854565
   0.53433527  0.81054918  0.91216362
   0.59448612  0.93513460  0.58866433
   0.52632559  0.14833012  0.63927199
   0.92798507  0.94472209  0.85922093
   0.91223040  0.17579094  0.49854607
   0.00048564  0.49169111  0.24687844
   0.25433510 -0.00119271  0.25308464
   0.24504718  0.51003809 -0.00006106
   0.00048576  0.49169104  0.74687788
   0.25433508 -0.00119299  0.75308403
   0.24504725  0.51003807  0.49993928
   0.50048565  0.49169096  0.24687862
   0.75433439 -0.00119290  0.25308477
   0.74504651  0.51003812 -0.00006095
   0.50048562  0.49169142  0.74687784
   0.75433456 -0.00119307  0.75308412
   0.74504642  0.51003795  0.49993924
   0.03379810  0.04107588  0.08122147
   0.48099112  0.93143659  0.41817951
   0.03379809  0.04107587  0.58122194
   0.48099108  0.93143657  0.91817916
   0.53379806  0.04107585  0.08122155
   0.98099104  0.93143661  0.41817950
   0.53379816  0.04107591  0.58122187
   0.98099114  0.93143657  0.91817906
   0.25046843  0.49906491  0.24998882
   0.25046837  0.49906495  0.74998863
   0.75046817  0.49906489  0.24998883
   0.75046818  0.49906507  0.74998861
cubic-FASnI3                            
           1
    12.608582   -0.068354    0.379182
    -0.034077    6.307323    0.201277
     0.381645    0.404998   12.541805
   C    H    I    N    Sn
     4    20    12     8     4
Direct configuration=    15
   0.47358486  0.05331863  0.99915511
   0.47358498  0.05331861  0.49915556
   0.97358486  0.05331857  0.99915495
   0.97358494  0.05331849  0.49915554
   0.03459560  0.81060764  0.41259957
   0.09451325  0.93464727  0.08833167
   0.02579510  0.14842560  0.13831319
   0.42786657  0.94595238  0.36011038
   0.41190128  0.17627317  0.99850626
   0.03459513  0.81060867  0.91259918
   0.09451274  0.93464828  0.58833204
   0.02579527  0.14842459  0.63831293
   0.42786700  0.94595233  0.86011061
   0.41190126  0.17627317  0.49850655
   0.53459571  0.81060751  0.41259964
   0.59451312  0.93464742  0.08833173
   0.52579508  0.14842550  0.13831317