
Lmod is automatically replacing "cce/11.0.4" with "gcc/10.2.0".


Lmod is automatically replacing "PrgEnv-cray/8.0.0" with "PrgEnv-gnu/8.0.0".


Lmod is automatically replacing "craype-network-ofi" with "craype-network-ucx".


Inactive Modules:
  1) cray-mpich


Lmod is automatically replacing "craype-network-ucx" with "craype-network-ofi".


Inactive Modules:
  1) cray-mpich-ucx/8.1.9

Activating Modules:
  1) cray-mpich/8.1.4

 ----------------------------------------------------
    OOO  PPPP  EEEEE N   N M   M PPPP
   O   O P   P E     NN  N MM MM P   P
   O   O PPPP  EEEEE N N N M M M PPPP   -- VERSION
   O   O P     E     N  NN M   M P
    OOO  P     EEEEE N   N M   M P
 ----------------------------------------------------
 running   64 mpi-ranks, with    1 threads/rank
 distrk:  each k-point on   32 cores,    2 groups
 distr:  one band on    4 cores,    8 groups
 vasp.6.3.1 04May22 (build May 25 2022 13:42:54) complex                         
 POSCAR found type information on POSCAR C H I N Sn
 POSCAR found :  5 types and      24 ions
 scaLAPACK will be used
 -----------------------------------------------------------------------------
|                                                                             |
|               ----> ADVICE to this user running VASP <----                  |
|                                                                             |
|     You have a (more or less) 'large supercell' and for larger cells it     |
|     might be more efficient to use real-space projection operators.         |
|     Therefore, try LREAL= Auto in the INCAR file.                           |
|     Mind: For very accurate calculation, you might also keep the            |
|     reciprocal projection scheme (i.e. LREAL=.FALSE.).                      |
|                                                                             |
 -----------------------------------------------------------------------------

 WARNING: PSMAXN for non-local potential too small
 LDA part: xc-table for Pade appr. of Perdew
 POSCAR, INCAR and KPOINTS ok, starting setup
 FFT: planning ... GRIDC
 FFT: planning ... GRID_SOFT
 FFT: planning ... GRID
 WAVECAR not read
 entering main loop
       N       E                     dE             d eps       ncg     rms          ort
DAV:   1     0.376740549353E+03    0.37674E+03   -0.45858E+04  1216   0.153E+03
DAV:   2    -0.244088812206E+03   -0.62083E+03   -0.59713E+03  1216   0.239E+02
DAV:   3    -0.320084441393E+03   -0.75996E+02   -0.75487E+02  1216   0.925E+01
DAV:   4    -0.321900675576E+03   -0.18162E+01   -0.18108E+01  1216   0.161E+01
DAV:   5    -0.321944244602E+03   -0.43569E-01   -0.43553E-01  1216   0.243E+00
 gam= 0.000 g(H,U,f)=  0.271E+02 0.470E+01 0.803E-03 ort(H,U,f) = 0.000E+00 0.000E+00 0.000E+00
SDA:   6    -0.289840115110E+03    0.32104E+02   -0.43553E-01  1216   0.318E+02 0.000E+00
 gam= 0.000 trial= 0.400  step= 0.346 mean= 0.400
 gam= 0.075 g(H,U,f)=  0.184E+01 0.534E+00 0.337E-15 ort(H,U,f) =-0.119E+01 0.148E+01-0.223E-15
CGA:   7    -0.295337776672E+03   -0.54977E+01   -0.55063E+01  1216   0.238E+01 0.286E+00
 gam= 0.075 trial= 0.397  step= 0.622 mean= 0.397
 gam= 0.320 g(H,U,f)=  0.603E+00 0.157E+00 0.221E-12 ort(H,U,f) =-0.314E+00 0.330E+00 0.149E-12
CGA:   8    -0.296086085792E+03   -0.74831E+00   -0.74550E+00  1216   0.760E+00 0.163E-01
 gam= 0.320 trial= 0.409  step= 0.618 mean= 0.409
 gam= 0.308 g(H,U,f)=  0.194E+00 0.404E-01-0.843E-35 ort(H,U,f) =-0.127E+00 0.128E+00 0.000E+00
CGA:   9    -0.296322711431E+03   -0.23663E+00   -0.23651E+00  1216   0.234E+00 0.120E-02
 gam= 0.308 trial= 0.419  step= 0.615 mean= 0.419
 gam= 0.267 g(H,U,f)=  0.553E-01 0.742E-02 0.445E-18 ort(H,U,f) =-0.333E-01 0.332E-01 0.734E-18
CGA:  10    -0.296394860517E+03   -0.72149E-01   -0.72150E-01  1216   0.627E-01-0.699E-04
 gam= 0.267 trial= 0.429  step= 0.710 mean= 0.429
 gam= 0.262 g(H,U,f)=  0.154E-01 0.103E-02 0.119E-16 ort(H,U,f) =-0.553E-02 0.537E-02 0.304E-16
CGA:  11    -0.296417079923E+03   -0.22219E-01   -0.22240E-01  1216   0.164E-01-0.160E-03
 gam= 0.262 trial= 0.443  step= 0.641 mean= 0.443
 gam= 0.202 g(H,U,f)=  0.313E-02 0.196E-03 0.672E-28 ort(H,U,f) =-0.745E-03 0.737E-03-0.163E-26
CGA:  12    -0.296422333682E+03   -0.52538E-02   -0.52550E-02  1216   0.333E-02-0.848E-05
 gam= 0.202 trial= 0.453  step= 0.722 mean= 0.453
 gam= 0.234 g(H,U,f)=  0.731E-03 0.483E-04 0.969E-17 ort(H,U,f) =-0.122E-03 0.113E-03 0.255E-16
CGA:  13    -0.296423531905E+03   -0.11982E-02   -0.11994E-02  1216   0.779E-03-0.862E-05
 gam= 0.234 trial= 0.466  step= 0.729 mean= 0.466
 gam= 0.209 g(H,U,f)=  0.151E-03 0.124E-04-0.121E-27 ort(H,U,f) =-0.277E-04 0.294E-04-0.404E-27
CGA:  14    -0.296423815128E+03   -0.28322E-03   -0.28300E-03  1216   0.163E-03 0.177E-05
 gam= 0.209 trial= 0.479  step= 0.780 mean= 0.479
 gam= 0.235 g(H,U,f)=  0.352E-04 0.316E-05 0.132E-14 ort(H,U,f) =-0.451E-05 0.851E-05 0.502E-14
CGA:  15    -0.296423879451E+03   -0.64323E-04   -0.63722E-04  1216   0.383E-04 0.399E-05
 gam= 0.235 trial= 0.494  step= 0.826 mean= 0.494
 gam= 0.244 g(H,U,f)=  0.866E-05 0.703E-06 0.447E-17 ort(H,U,f) =-0.130E-05 0.209E-05 0.240E-16
CGA:  16    -0.296423895803E+03   -0.16352E-04   -0.16221E-04  1216   0.936E-05 0.791E-06
 gam= 0.244 trial= 0.511  step= 0.826 mean= 0.511
 gam= 0.221 g(H,U,f)=  0.199E-05 0.797E-07 0.155E-20 ort(H,U,f) =-0.176E-06 0.282E-06 0.301E-19
CGA:  17    -0.296423899766E+03   -0.39623E-05   -0.39453E-05  1216   0.207E-05 0.106E-06
 gam= 0.221 trial= 0.527  step= 0.781 mean= 0.527
 final diagonalization
   1 F= -.29642390E+03 E0= -.29642390E+03  d E =-.296424E+03
 curvature:   0.00 expect dE= 0.000E+00 dE for cont linesearch  0.000E+00
 trial: gam= 0.00000 g(F)=  0.271E+00 g(S)=  0.000E+00 ort = 0.000E+00 (trialstep = 0.100E+01)
 search vector abs. value=  0.271E+00
 bond charge predicted
 wavefunctions rotated
       N       E                     dE             d eps       ncg     rms          ort
 gam= 0.000 g(H,U,f)=  0.536E+01 0.257E-01 0.330E-21 ort(H,U,f) = 0.000E+00 0.000E+00 0.000E+00
SDA:   1    -0.293863757100E+03    0.25601E+01    0.00000E+00  1216   0.539E+01 0.000E+00
 gam= 0.000 trial= 0.539  step= 0.681 mean= 0.539
 gam= 0.267 g(H,U,f)=  0.141E+01 0.265E-01 0.517E-19 ort(H,U,f) = 0.283E-01-0.209E-01-0.795E-20
CGA:   2    -0.295700093477E+03   -0.18363E+01   -0.18355E+01  1216   0.144E+01 0.735E-02
 gam= 0.267 trial= 0.546  step= 0.553 mean= 0.546
 gam= 0.172 g(H,U,f)=  0.240E+00 0.766E-02 0.706E-19 ort(H,U,f) =-0.782E-02 0.780E-02 0.113E-18
CGA:   3    -0.296097822359E+03   -0.39773E+00   -0.39773E+00  1216   0.248E+00-0.223E-04
 gam= 0.172 trial= 0.547  step= 0.505 mean= 0.547
 gam= 0.173 g(H,U,f)=  0.404E-01 0.259E-02 0.241E-18 ort(H,U,f) =-0.489E-02 0.502E-02 0.856E-18
CGA:   4    -0.296160299746E+03   -0.62477E-01   -0.62483E-01  1216   0.430E-01 0.129E-03
 gam= 0.173 trial= 0.545  step= 0.579 mean= 0.545
 gam= 0.206 g(H,U,f)=  0.767E-02 0.118E-02 0.122E-17 ort(H,U,f) =-0.227E-02 0.231E-02 0.252E-17
CGA:   5    -0.296172731972E+03   -0.12432E-01   -0.12432E-01  1216   0.885E-02 0.317E-04
 gam= 0.206 trial= 0.546  step= 0.685 mean= 0.546
 gam= 0.290 g(H,U,f)=  0.220E-02 0.366E-03 0.280E-17 ort(H,U,f) =-0.877E-03 0.907E-03 0.739E-17
CGA:   6    -0.296175770536E+03   -0.30386E-02   -0.30365E-02  1216   0.257E-02 0.301E-04
 gam= 0.290 trial= 0.553  step= 0.774 mean= 0.553
 gam= 0.321 g(H,U,f)=  0.761E-03 0.642E-04 0.196E-19 ort(H,U,f) =-0.240E-03 0.250E-03-0.559E-18
CGA:   7    -0.296176768573E+03   -0.99804E-03   -0.99684E-03  1216   0.825E-03 0.102E-04
 gam= 0.321 trial= 0.564  step= 0.754 mean= 0.564
 gam= 0.245 g(H,U,f)=  0.195E-03 0.782E-05 0.232E-20 ort(H,U,f) =-0.484E-04 0.485E-04-0.107E-18
CGA:   8    -0.296177080971E+03   -0.31240E-03   -0.31239E-03  1216   0.202E-03 0.830E-07
 gam= 0.245 trial= 0.574  step= 0.726 mean= 0.574
 gam= 0.196 g(H,U,f)=  0.391E-04 0.645E-06 0.556E-18 ort(H,U,f) =-0.315E-05 0.386E-05-0.643E-18
CGA:   9    -0.296177154487E+03   -0.73516E-04   -0.73462E-04  1216   0.397E-04 0.714E-06
 gam= 0.196 trial= 0.581  step= 0.739 mean= 0.581
 gam= 0.207 g(H,U,f)=  0.812E-05 0.953E-07 0.152E-17 ort(H,U,f) =-0.922E-08 0.147E-07 0.112E-17
CGA:  10    -0.296177169220E+03   -0.14733E-04   -0.14733E-04  1216   0.821E-05 0.547E-08
 gam= 0.207 trial= 0.589  step= 0.832 mean= 0.589
 gam= 0.256 g(H,U,f)=  0.206E-05 0.416E-07 0.933E-32 ort(H,U,f) =-0.531E-06-0.145E-07 0.468E-32
CGA:  11    -0.296177172570E+03   -0.33496E-05   -0.34155E-05  1216   0.210E-05-0.546E-06
 gam= 0.256 trial= 0.601  step= 0.962 mean= 0.601
 final diagonalization
   2 F= -.29617717E+03 E0= -.29617717E+03  d E =0.246727E+00
 trial-energy change:    0.246727  1 .order    0.271760   -0.270553    0.814073
 step:   0.2772(harm=  0.2494)  dis= 0.01209  next Energy=  -296.461930 (dE=-0.380E-01)
 bond charge predicted
 wavefunctions rotated
       N       E                     dE             d eps       ncg     rms          ort
 gam= 0.000 g(H,U,f)=  0.285E+01 0.126E-01 0.342E-16 ort(H,U,f) = 0.000E+00 0.000E+00 0.000E+00
SDA:   1    -0.295246212089E+03    0.93096E+00    0.00000E+00  1216   0.286E+01 0.000E+00
 gam= 0.000 trial= 0.619  step= 0.676 mean= 0.619
 gam= 0.264 g(H,U,f)=  0.740E+00 0.141E-01 0.189E-14 ort(H,U,f) = 0.549E-02-0.827E-02-0.172E-14
CGA:   2    -0.296212539769E+03   -0.96633E+00   -0.96646E+00  1216   0.755E+00-0.278E-02
 gam= 0.264 trial= 0.622  step= 0.550 mean= 0.622
 gam= 0.173 g(H,U,f)=  0.127E+00 0.336E-02 0.792E-14 ort(H,U,f) =-0.300E-02 0.364E-02 0.367E-14
CGA:   3    -0.296419761875E+03   -0.20722E+00   -0.20728E+00  1216   0.131E+00 0.637E-03
 gam= 0.173 trial= 0.619  step= 0.507 mean= 0.619
 gam= 0.172 g(H,U,f)=  0.213E-01 0.127E-02 0.154E-15 ort(H,U,f) =-0.239E-02 0.237E-02 0.455E-15
CGA:   4    -0.296452937822E+03   -0.33176E-01   -0.33170E-01  1216   0.225E-01-0.280E-04
 gam= 0.172 trial= 0.613  step= 0.576 mean= 0.613
 gam= 0.208 g(H,U,f)=  0.408E-02 0.608E-03 0.451E-16 ort(H,U,f) =-0.115E-02 0.114E-02 0.919E-16
CGA:   5    -0.296459430331E+03   -0.64925E-02   -0.64923E-02  1216   0.468E-02-0.917E-05
 gam= 0.208 trial= 0.611  step= 0.675 mean= 0.611
 gam= 0.298 g(H,U,f)=  0.121E-02 0.180E-03 0.211E-16 ort(H,U,f) =-0.455E-03 0.449E-03 0.362E-16
CGA:   6    -0.296461009603E+03   -0.15793E-02   -0.15795E-02  1216   0.139E-02-0.576E-05
 gam= 0.298 trial= 0.614  step= 0.763 mean= 0.614
 gam= 0.323 g(H,U,f)=  0.416E-03 0.333E-04 0.643E-18 ort(H,U,f) =-0.129E-03 0.129E-03 0.427E-17
CGA:   7    -0.296461540239E+03   -0.53064E-03   -0.53069E-03  1216   0.450E-03-0.549E-06
 gam= 0.323 trial= 0.622  step= 0.752 mean= 0.622
 gam= 0.244 g(H,U,f)=  0.106E-03 0.386E-05 0.198E-18 ort(H,U,f) =-0.230E-04 0.242E-04 0.112E-17
CGA:   8    -0.296461709286E+03   -0.16905E-03   -0.16897E-03  1216   0.110E-03 0.114E-05
 gam= 0.244 trial= 0.628  step= 0.735 mean= 0.628
 gam= 0.202 g(H,U,f)=  0.218E-04 0.312E-06 0.212E-19 ort(H,U,f) =-0.223E-05 0.217E-05 0.159E-18
CGA:   9    -0.296461749749E+03   -0.40462E-04   -0.40465E-04  1216   0.221E-04-0.540E-07
 gam= 0.202 trial= 0.634  step= 0.746 mean= 0.634
 gam= 0.209 g(H,U,f)=  0.457E-05 0.530E-07 0.398E-20 ort(H,U,f) =-0.231E-06 0.128E-07-0.248E-19
CGA:  10    -0.296461757993E+03   -0.82439E-05   -0.82563E-05  1216   0.463E-05-0.218E-06
 gam= 0.209 trial= 0.639  step= 0.734 mean= 0.639
 gam= 0.218 g(H,U,f)=  0.983E-06 0.251E-07 0.290E-20 ort(H,U,f) = 0.202E-06 0.167E-08-0.111E-20
CGA:  11    -0.296461759683E+03   -0.16908E-05   -0.16812E-05  1216   0.101E-05 0.203E-06
 gam= 0.218 trial= 0.644  step= 0.693 mean= 0.644
 final diagonalization
   3 F= -.29646176E+03 E0= -.29646176E+03  d E =-.378599E-01
 curvature:  -0.12 expect dE=-0.123E-01 dE for cont linesearch -0.273E-06
 trial: gam= 0.36691 g(F)=  0.985E-01 g(S)=  0.000E+00 ort =-0.770E-03 (trialstep = 0.855E+00)
 search vector abs. value=  0.134E+00
 bond charge predicted
 wavefunctions rotated
       N       E                     dE             d eps       ncg     rms          ort
 gam= 0.000 g(H,U,f)=  0.182E+01 0.190E-01 0.131E-15 ort(H,U,f) = 0.000E+00 0.000E+00 0.000E+00
SDA:   1    -0.295719921745E+03    0.74184E+00    0.00000E+00  1216   0.184E+01 0.000E+00
 gam= 0.000 trial= 0.646  step= 0.585 mean= 0.646
 gam= 0.343 g(H,U,f)=  0.613E+00 0.156E-01 0.178E-30 ort(H,U,f) = 0.196E-01-0.144E-01 0.000E+00
CGA:   2    -0.296256200464E+03   -0.53628E+00   -0.53666E+00  1216   0.629E+00 0.517E-02
 gam= 0.343 trial= 0.643  step= 0.566 mean= 0.643
 gam= 0.158 g(H,U,f)=  0.922E-01 0.717E-02 0.105E-16 ort(H,U,f) =-0.382E-02 0.377E-02 0.377E-16
CGA:   3    -0.296434806129E+03   -0.17861E+00   -0.17857E+00  1216   0.994E-01-0.471E-04
 gam= 0.158 trial= 0.640  step= 0.498 mean= 0.640
 gam= 0.184 g(H,U,f)=  0.166E-01 0.171E-02 0.255E-18 ort(H,U,f) =-0.360E-02 0.367E-02 0.782E-18
CGA:   4    -0.296459575618E+03   -0.24769E-01   -0.24777E-01  1216   0.183E-01 0.685E-04
 gam= 0.184 trial= 0.632  step= 0.562 mean= 0.632
 gam= 0.233 g(H,U,f)=  0.366E-02 0.605E-03 0.566E-19 ort(H,U,f) =-0.135E-02 0.138E-02 0.757E-19
CGA:   5    -0.296464723106E+03   -0.51475E-02   -0.51487E-02  1216   0.427E-02 0.327E-04
 gam= 0.233 trial= 0.629  step= 0.670 mean= 0.629
 gam= 0.303 g(H,U,f)=  0.108E-02 0.211E-03 0.461E-21 ort(H,U,f) =-0.542E-03 0.541E-03 0.283E-20
CGA:   6    -0.296466153873E+03   -0.14308E-02   -0.14308E-02  1216   0.129E-02-0.712E-06
 gam= 0.303 trial= 0.631  step= 0.801 mean= 0.631
 gam= 0.329 g(H,U,f)=  0.396E-03 0.295E-04 0.873E-22 ort(H,U,f) =-0.140E-03 0.135E-03-0.357E-21
CGA:   7    -0.296466670490E+03   -0.51662E-03   -0.51708E-03  1216   0.425E-03-0.549E-05
 gam= 0.329 trial= 0.639  step= 0.727 mean= 0.639
 gam= 0.237 g(H,U,f)=  0.990E-04 0.187E-05 0.650E-22 ort(H,U,f) =-0.127E-04 0.158E-04-0.217E-22
CGA:   8    -0.296466824539E+03   -0.15405E-03   -0.15391E-03  1216   0.101E-03 0.311E-05
 gam= 0.237 trial= 0.644  step= 0.713 mean= 0.644
 gam= 0.209 g(H,U,f)=  0.208E-04 0.318E-06 0.195E-22 ort(H,U,f) = 0.292E-06 0.854E-06 0.324E-22
CGA:   9    -0.296466860816E+03   -0.36278E-04   -0.36238E-04  1216   0.211E-04 0.115E-05
 gam= 0.209 trial= 0.647  step= 0.748 mean= 0.647
 gam= 0.217 g(H,U,f)=  0.447E-05 0.106E-06 0.652E-23 ort(H,U,f) =-0.166E-06-0.263E-07 0.159E-22
CGA:  10    -0.296466868793E+03   -0.79763E-05   -0.79861E-05  1216   0.457E-05-0.193E-06
 gam= 0.217 trial= 0.652  step= 0.761 mean= 0.652
 gam= 0.220 g(H,U,f)=  0.942E-06 0.652E-07 0.390E-23 ort(H,U,f) = 0.316E-07 0.494E-07 0.834E-23
CGA:  11    -0.296466870520E+03   -0.17278E-05   -0.17236E-05  1216   0.101E-05 0.810E-07
 gam= 0.220 trial= 0.658  step= 0.668 mean= 0.658
 final diagonalization
   4 F= -.29646687E+03 E0= -.29646687E+03  d E =-.511084E-02
 trial-energy change:   -0.005111  1 .order   -0.003800   -0.084017    0.076416
 step:   0.4584(harm=  0.4480)  dis= 0.01131  next Energy=  -296.484473 (dE=-0.227E-01)
 bond charge predicted
 wavefunctions rotated
       N       E                     dE             d eps       ncg     rms          ort
 gam= 0.000 g(H,U,f)=  0.393E+00 0.451E-02 0.111E-28 ort(H,U,f) = 0.000E+00 0.000E+00 0.000E+00
SDA:   1    -0.296323838866E+03    0.14303E+00    0.00000E+00  1216   0.398E+00 0.000E+00
 gam= 0.000 trial= 0.658  step= 0.579 mean= 0.658
 gam= 0.344 g(H,U,f)=  0.133E+00 0.376E-02 0.272E-15 ort(H,U,f) = 0.274E-02-0.312E-02-0.292E-15
CGA:   2    -0.296438890306E+03   -0.11505E+00   -0.11501E+00  1216   0.137E+00-0.382E-03
 gam= 0.344 trial= 0.654  step= 0.565 mean= 0.654
 gam= 0.157 g(H,U,f)=  0.199E-01 0.161E-02-0.501E-31 ort(H,U,f) =-0.782E-03 0.778E-03-0.537E-30
CGA:   3    -0.296477483462E+03   -0.38593E-01   -0.38598E-01  1216   0.215E-01-0.410E-05
 gam= 0.157 trial= 0.650  step= 0.505 mean= 0.650
 gam= 0.182 g(H,U,f)=  0.357E-02 0.351E-03 0.231E-32 ort(H,U,f) =-0.798E-03 0.782E-03 0.000E+00
CGA:   4    -0.296482910716E+03   -0.54273E-02   -0.54259E-02  1216   0.392E-02-0.163E-04
 gam= 0.182 trial= 0.643  step= 0.563 mean= 0.643
 gam= 0.233 g(H,U,f)=  0.787E-03 0.126E-03-0.497E-33 ort(H,U,f) =-0.298E-03 0.285E-03 0.000E+00
CGA:   5    -0.296484015103E+03   -0.11044E-02   -0.11039E-02  1216   0.913E-03-0.131E-04
 gam= 0.233 trial= 0.639  step= 0.666 mean= 0.639
 gam= 0.298 g(H,U,f)=  0.228E-03 0.444E-04 0.929E-32 ort(H,U,f) =-0.111E-03 0.112E-03 0.117E-30
CGA:   6    -0.296484318121E+03   -0.30302E-03   -0.30300E-03  1216   0.272E-03 0.158E-05
 gam= 0.298 trial= 0.640  step= 0.795 mean= 0.640
 gam= 0.321 g(H,U,f)=  0.808E-04 0.647E-05 0.280E-35 ort(H,U,f) =-0.251E-04 0.286E-04 0.000E+00
CGA:   7    -0.296484426765E+03   -0.10864E-03   -0.10837E-03  1216   0.873E-04 0.352E-05
 gam= 0.321 trial= 0.648  step= 0.752 mean= 0.648
 gam= 0.254 g(H,U,f)=  0.218E-04 0.397E-06 0.616E-23 ort(H,U,f) =-0.457E-05 0.336E-05 0.857E-23
CGA:   8    -0.296484459934E+03   -0.33169E-04   -0.33231E-04  1216   0.222E-04-0.120E-05
 gam= 0.254 trial= 0.653  step= 0.725 mean= 0.653
 gam= 0.208 g(H,U,f)=  0.454E-05 0.768E-07 0.109E-23 ort(H,U,f) =-0.547E-06 0.117E-06 0.286E-23
CGA:   9    -0.296484467842E+03   -0.79088E-05   -0.79245E-05  1216   0.461E-05-0.431E-06
 gam= 0.208 trial= 0.657  step= 0.720 mean= 0.657
 gam= 0.196 g(H,U,f)=  0.877E-06 0.290E-07 0.294E-24 ort(H,U,f) = 0.891E-07-0.118E-07 0.820E-24
CGA:  10    -0.296484469473E+03   -0.16304E-05   -0.16279E-05  1216   0.906E-06 0.772E-07
 gam= 0.196 trial= 0.660  step= 0.858 mean= 0.660
 final diagonalization
   5 F= -.29648447E+03 E0= -.29648447E+03  d E =-.227098E-01
 curvature:  -0.31 expect dE=-0.435E-02 dE for cont linesearch -0.231E-08
 trial: gam= 0.12911 g(F)=  0.142E-01 g(S)=  0.000E+00 ort =-0.318E-04 (trialstep = 0.776E+00)
 search vector abs. value=  0.164E-01
 bond charge predicted
 wavefunctions rotated
       N       E                     dE             d eps       ncg     rms          ort
 gam= 0.000 g(H,U,f)=  0.268E+00 0.201E-02 0.246E-20 ort(H,U,f) = 0.000E+00 0.000E+00 0.000E+00
SDA:   1    -0.296356028583E+03    0.12844E+00    0.00000E+00  1216   0.270E+00 0.000E+00
 gam= 0.000 trial= 0.670  step= 0.724 mean= 0.670
 gam= 0.314 g(H,U,f)=  0.831E-01 0.175E-02 0.361E-20 ort(H,U,f) = 0.178E-02-0.174E-02-0.376E-20
CGA:   2    -0.296453891285E+03   -0.97863E-01   -0.97861E-01  1216   0.849E-01 0.444E-04
 gam= 0.314 trial= 0.672  step= 0.516 mean= 0.672
 gam= 0.144 g(H,U,f)=  0.118E-01 0.414E-03 0.184E-21 ort(H,U,f) = 0.107E-03-0.102E-03 0.397E-21
CGA:   3    -0.296475784058E+03   -0.21893E-01   -0.21892E-01  1216   0.122E-01 0.469E-05
 gam= 0.144 trial= 0.665  step= 0.509 mean= 0.665
 gam= 0.160 g(H,U,f)=  0.187E-02 0.771E-04 0.384E-22 ort(H,U,f) =-0.131E-03 0.135E-03 0.102E-21
CGA:   4    -0.296478885902E+03   -0.31018E-02   -0.31022E-02  1216   0.195E-02 0.353E-05
 gam= 0.160 trial= 0.657  step= 0.583 mean= 0.657
 gam= 0.206 g(H,U,f)=  0.364E-03 0.370E-04 0.457E-22 ort(H,U,f) =-0.658E-04 0.664E-04 0.597E-22
CGA:   5    -0.296479454418E+03   -0.56852E-03   -0.56854E-03  1216   0.401E-03 0.546E-06
 gam= 0.206 trial= 0.653  step= 0.665 mean= 0.653
 gam= 0.278 g(H,U,f)=  0.965E-04 0.149E-04 0.100E-22 ort(H,U,f) =-0.316E-04 0.304E-04 0.275E-22
CGA:   6    -0.296479587652E+03   -0.13323E-03   -0.13324E-03  1216   0.111E-03-0.117E-05
 gam= 0.278 trial= 0.654  step= 0.755 mean= 0.654
 gam= 0.315 g(H,U,f)=  0.318E-04 0.323E-05 0.122E-23 ort(H,U,f) =-0.934E-05 0.942E-05 0.649E-23
CGA:   7    -0.296479629598E+03   -0.41946E-04   -0.41942E-04  1216   0.350E-04 0.790E-07
 gam= 0.315 trial= 0.659  step= 0.748 mean= 0.659
 gam= 0.251 g(H,U,f)=  0.829E-05 0.525E-06 0.145E-24 ort(H,U,f) =-0.189E-05 0.233E-05 0.125E-23
CGA:   8    -0.296479642726E+03   -0.13128E-04   -0.13108E-04  1216   0.881E-05 0.446E-06
 gam= 0.251 trial= 0.663  step= 0.744 mean= 0.663
 gam= 0.213 g(H,U,f)=  0.180E-05 0.834E-07 0.218E-25 ort(H,U,f) =-0.338E-06 0.339E-06-0.204E-24
CGA:   9    -0.296479646047E+03   -0.33208E-05   -0.33206E-05  1216   0.188E-05 0.135E-08
 gam= 0.213 trial= 0.667  step= 0.783 mean= 0.667
 final diagonalization
   6 F= -.29647965E+03 E0= -.29647965E+03  d E =0.482343E-02
 trial-energy change:    0.004823  1 .order    0.004849   -0.011018    0.020716
 step:   0.2703(harm=  0.2694)  dis= 0.00259  next Energy=  -296.486389 (dE=-0.192E-02)
 bond charge predicted
 wavefunctions rotated
       N       E                     dE             d eps       ncg     rms          ort
 gam= 0.000 g(H,U,f)=  0.114E+00 0.826E-03 0.991E-20 ort(H,U,f) = 0.000E+00 0.000E+00 0.000E+00
SDA:   1    -0.296433891112E+03    0.45752E-01    0.00000E+00  1216   0.115E+00 0.000E+00
 gam= 0.000 trial= 0.673  step= 0.724 mean= 0.673
 gam= 0.314 g(H,U,f)=  0.353E-01 0.750E-03 0.532E-20 ort(H,U,f) = 0.704E-03-0.712E-03-0.466E-20
CGA:   2    -0.296475462869E+03   -0.41572E-01   -0.41572E-01  1216   0.361E-01-0.804E-05
 gam= 0.314 trial= 0.676  step= 0.515 mean= 0.676
 gam= 0.143 g(H,U,f)=  0.500E-02 0.168E-03 0.628E-21 ort(H,U,f) = 0.344E-04-0.353E-04 0.198E-20
CGA:   3    -0.296484751207E+03   -0.92883E-02   -0.92887E-02  1216   0.516E-02-0.918E-06
 gam= 0.143 trial= 0.668  step= 0.510 mean= 0.668
 gam= 0.160 g(H,U,f)=  0.793E-03 0.327E-04 0.324E-21 ort(H,U,f) =-0.591E-04 0.565E-04 0.827E-21
CGA:   4    -0.296486068018E+03   -0.13168E-02   -0.13166E-02  1216   0.825E-03-0.259E-05
 gam= 0.160 trial= 0.660  step= 0.584 mean= 0.660
 gam= 0.205 g(H,U,f)=  0.153E-03 0.157E-04 0.563E-21 ort(H,U,f) =-0.284E-04 0.282E-04 0.728E-21
CGA:   5    -0.296486308846E+03   -0.24083E-03   -0.24082E-03  1216   0.169E-03-0.263E-06
 gam= 0.205 trial= 0.656  step= 0.656 mean= 0.656
 gam= 0.269 g(H,U,f)=  0.393E-04 0.621E-05 0.125E-21 ort(H,U,f) =-0.117E-04 0.128E-04 0.419E-21
CGA:   6    -0.296486364235E+03   -0.55388E-04   -0.55388E-04  1216   0.455E-04 0.113E-05
 gam= 0.269 trial= 0.656  step= 0.758 mean= 0.656
 gam= 0.317 g(H,U,f)=  0.130E-04 0.139E-05 0.144E-22 ort(H,U,f) =-0.383E-05 0.404E-05 0.101E-21
CGA:   7    -0.296486381589E+03   -0.17355E-04   -0.17344E-04  1216   0.144E-04 0.213E-06
 gam= 0.317 trial= 0.661  step= 0.770 mean= 0.661
 gam= 0.264 g(H,U,f)=  0.359E-05 0.217E-06 0.236E-24 ort(H,U,f) =-0.116E-05 0.960E-06 0.729E-23
CGA:   8    -0.296486387149E+03   -0.55598E-05   -0.55706E-05  1216   0.381E-05-0.196E-06
 gam= 0.264 trial= 0.666  step= 0.727 mean= 0.666
 gam= 0.202 g(H,U,f)=  0.740E-06 0.300E-07 0.474E-23 ort(H,U,f) =-0.984E-07 0.125E-06-0.115E-22
CGA:   9    -0.296486388515E+03   -0.13661E-05   -0.13652E-05  1216   0.770E-06 0.267E-07
 gam= 0.202 trial= 0.669  step= 0.694 mean= 0.669
 final diagonalization
   7 F= -.29648639E+03 E0= -.29648639E+03  d E =-.191904E-02
 curvature:  -0.16 expect dE=-0.131E-02 dE for cont linesearch -0.898E-09
 trial: gam= 0.59055 g(F)=  0.841E-02 g(S)=  0.000E+00 ort = 0.973E-05 (trialstep = 0.675E+00)
 search vector abs. value=  0.142E-01
 bond charge predicted
 wavefunctions rotated
       N       E                     dE             d eps       ncg     rms          ort
 gam= 0.000 g(H,U,f)=  0.921E-01 0.715E-03 0.903E-19 ort(H,U,f) = 0.000E+00 0.000E+00 0.000E+00
SDA:   1    -0.296448302663E+03    0.38084E-01    0.00000E+00  1216   0.928E-01 0.000E+00
 gam= 0.000 trial= 0.671  step= 0.762 mean= 0.671
 gam= 0.273 g(H,U,f)=  0.247E-01 0.645E-03 0.305E-19 ort(H,U,f) = 0.610E-03-0.597E-03-0.685E-19
CGA:   2    -0.296483672385E+03   -0.35370E-01   -0.35369E-01  1216   0.253E-01 0.131E-04
 gam= 0.273 trial= 0.675  step= 0.491 mean= 0.675
 gam= 0.138 g(H,U,f)=  0.338E-02 0.112E-03 0.420E-19 ort(H,U,f) =-0.110E-03 0.109E-03 0.118E-19
CGA:   3    -0.296489900235E+03   -0.62278E-02   -0.62278E-02  1216   0.349E-02-0.584E-06
 gam= 0.138 trial= 0.666  step= 0.514 mean= 0.666
 gam= 0.191 g(H,U,f)=  0.625E-03 0.423E-04 0.179E-20 ort(H,U,f) =-0.724E-04 0.730E-04 0.889E-20
CGA:   4    -0.296490796763E+03   -0.89653E-03   -0.89656E-03  1216   0.668E-03 0.587E-06
 gam= 0.191 trial= 0.658  step= 0.578 mean= 0.658
 gam= 0.218 g(H,U,f)=  0.124E-03 0.210E-04 0.326E-20 ort(H,U,f) =-0.377E-04 0.373E-04 0.510E-20
CGA:   5    -0.296490989776E+03   -0.19301E-03   -0.19299E-03  1216   0.145E-03-0.461E-06
 gam= 0.218 trial= 0.654  step= 0.717 mean= 0.654
 gam= 0.314 g(H,U,f)=  0.399E-04 0.585E-05 0.247E-20 ort(H,U,f) =-0.152E-04 0.148E-04 0.421E-20
CGA:   6    -0.296491041880E+03   -0.52104E-04   -0.52115E-04  1216   0.457E-04-0.359E-06
 gam= 0.314 trial= 0.658  step= 0.758 mean= 0.658
 gam= 0.306 g(H,U,f)=  0.131E-04 0.920E-06 0.278E-22 ort(H,U,f) =-0.409E-05 0.390E-05 0.453E-21
CGA:   7    -0.296491059152E+03   -0.17272E-04   -0.17282E-04  1216   0.140E-04-0.187E-06
 gam= 0.306 trial= 0.663  step= 0.719 mean= 0.663
 gam= 0.221 g(H,U,f)=  0.298E-05 0.120E-06 0.706E-23 ort(H,U,f) =-0.613E-06 0.631E-06-0.953E-22
CGA:   8    -0.296491064163E+03   -0.50111E-05   -0.50106E-05  1216   0.309E-05 0.180E-07
 gam= 0.221 trial= 0.665  step= 0.707 mean= 0.665
 gam= 0.198 g(H,U,f)=  0.597E-06 0.157E-07 0.379E-23 ort(H,U,f) =-0.294E-07 0.466E-07-0.116E-22
CGA:   9    -0.296491065259E+03   -0.10958E-05   -0.10956E-05  1216   0.613E-06 0.173E-07
 gam= 0.198 trial= 0.668  step= 0.764 mean= 0.668
 final diagonalization
   8 F= -.29649107E+03 E0= -.29649107E+03  d E =-.467674E-02
 trial-energy change:   -0.004677  1 .order   -0.004680   -0.005679   -0.003681
 step:   1.9186(harm=  1.9186)  dis= 0.01253  next Energy=  -296.494461 (dE=-0.807E-02)
 bond charge predicted
 wavefunctions rotated
       N       E                     dE             d eps       ncg     rms          ort
 gam= 0.000 g(H,U,f)=  0.313E+00 0.239E-02 0.736E-17 ort(H,U,f) = 0.000E+00 0.000E+00 0.000E+00
SDA:   1    -0.296349128962E+03    0.14194E+00    0.00000E+00  1216   0.315E+00 0.000E+00
 gam= 0.000 trial= 0.672  step= 0.762 mean= 0.672
 gam= 0.273 g(H,U,f)=  0.840E-01 0.226E-02 0.501E-18 ort(H,U,f) = 0.207E-02-0.203E-02-0.152E-17
CGA:   2    -0.296469273345E+03   -0.12014E+00   -0.12014E+00  1216   0.862E-01 0.349E-04
 gam= 0.273 trial= 0.677  step= 0.491 mean= 0.677
 gam= 0.138 g(H,U,f)=  0.115E-01 0.396E-03 0.172E-17 ort(H,U,f) =-0.394E-03 0.392E-03 0.216E-19
CGA:   3    -0.296490457061E+03   -0.21184E-01   -0.21184E-01  1216   0.119E-01-0.177E-05
 gam= 0.138 trial= 0.668  step= 0.515 mean= 0.668
 gam= 0.192 g(H,U,f)=  0.214E-02 0.151E-03 0.574E-19 ort(H,U,f) =-0.259E-03 0.260E-03 0.294E-18
CGA:   4    -0.296493519606E+03   -0.30625E-02   -0.30625E-02  1216   0.229E-02 0.956E-06
 gam= 0.192 trial= 0.660  step= 0.579 mean= 0.660
 gam= 0.220 g(H,U,f)=  0.429E-03 0.745E-04 0.110E-18 ort(H,U,f) =-0.134E-03 0.133E-03 0.173E-18
CGA:   5    -0.296494182284E+03   -0.66268E-03   -0.66264E-03  1216   0.504E-03-0.879E-06
 gam= 0.220 trial= 0.656  step= 0.720 mean= 0.656
 gam= 0.317 g(H,U,f)=  0.139E-03 0.207E-04 0.988E-19 ort(H,U,f) =-0.532E-04 0.527E-04 0.156E-18
CGA:   6    -0.296494363463E+03   -0.18118E-03   -0.18119E-03  1216   0.160E-03-0.475E-06
 gam= 0.317 trial= 0.659  step= 0.757 mean= 0.659
 gam= 0.306 g(H,U,f)=  0.456E-04 0.324E-05 0.137E-20 ort(H,U,f) =-0.140E-04 0.138E-04 0.196E-19
CGA:   7    -0.296494423923E+03   -0.60460E-04   -0.60472E-04  1216   0.489E-04-0.232E-06
 gam= 0.306 trial= 0.664  step= 0.720 mean= 0.664
 gam= 0.222 g(H,U,f)=  0.104E-04 0.414E-06 0.288E-23 ort(H,U,f) =-0.216E-05 0.220E-05-0.389E-21
CGA:   8    -0.296494441491E+03   -0.17568E-04   -0.17567E-04  1216   0.108E-04 0.413E-07
 gam= 0.222 trial= 0.667  step= 0.709 mean= 0.667
 gam= 0.198 g(H,U,f)=  0.209E-05 0.570E-07 0.313E-22 ort(H,U,f) =-0.132E-06 0.158E-06-0.314E-21
CGA:   9    -0.296494445335E+03   -0.38446E-05   -0.38441E-05  1216   0.215E-05 0.259E-07
 gam= 0.198 trial= 0.669  step= 0.758 mean= 0.669
 final diagonalization
   9 F= -.29649445E+03 E0= -.29649445E+03  d E =-.805682E-02
 curvature:  -1.61 expect dE=-0.443E-01 dE for cont linesearch -0.427E-07
 trial: gam= 3.25271 g(F)=  0.275E-01 g(S)=  0.000E+00 ort =-0.193E-04 (trialstep = 0.738E-01)
 search vector abs. value=  0.177E+00
 bond charge predicted
 wavefunctions rotated
       N       E                     dE             d eps       ncg     rms          ort
 gam= 0.000 g(H,U,f)=  0.136E-01 0.110E-03 0.155E-17 ort(H,U,f) = 0.000E+00 0.000E+00 0.000E+00
SDA:   1    -0.296490085190E+03    0.43563E-02    0.00000E+00  1216   0.137E-01 0.000E+00
 gam= 0.000 trial= 0.673  step= 0.740 mean= 0.673
 gam= 0.275 g(H,U,f)=  0.370E-02 0.840E-04 0.424E-18 ort(H,U,f) = 0.860E-04-0.851E-04-0.881E-18
CGA:   2    -0.296495168375E+03   -0.50832E-02   -0.50832E-02  1216   0.378E-02 0.926E-06
 gam= 0.275 trial= 0.677  step= 0.498 mean= 0.677
 gam= 0.142 g(H,U,f)=  0.518E-03 0.196E-04 0.360E-18 ort(H,U,f) =-0.965E-05 0.946E-05 0.164E-18
CGA:   3    -0.296496110433E+03   -0.94206E-03   -0.94202E-03  1216   0.537E-03-0.189E-06
 gam= 0.142 trial= 0.668  step= 0.510 mean= 0.668
 gam= 0.183 g(H,U,f)=  0.925E-04 0.593E-05 0.805E-19 ort(H,U,f) =-0.984E-05 0.103E-04 0.189E-18
CGA:   4    -0.296496247423E+03   -0.13699E-03   -0.13703E-03  1216   0.984E-04 0.462E-06
 gam= 0.183 trial= 0.660  step= 0.575 mean= 0.660
 gam= 0.214 g(H,U,f)=  0.181E-04 0.290E-05 0.864E-19 ort(H,U,f) =-0.523E-05 0.522E-05 0.128E-18
CGA:   5    -0.296496275732E+03   -0.28309E-04   -0.28309E-04  1216   0.210E-04-0.825E-08
 gam= 0.214 trial= 0.656  step= 0.704 mean= 0.656
 gam= 0.308 g(H,U,f)=  0.561E-05 0.873E-06 0.485E-19 ort(H,U,f) =-0.231E-05 0.212E-05 0.941E-19
CGA:   6    -0.296496283133E+03   -0.74007E-05   -0.74053E-05  1216   0.648E-05-0.188E-06
 gam= 0.308 trial= 0.658  step= 0.772 mean= 0.658
 gam= 0.318 g(H,U,f)=  0.192E-05 0.136E-06 0.128E-19 ort(H,U,f) =-0.651E-06 0.523E-06 0.448E-19
CGA:   7    -0.296496285603E+03   -0.24708E-05   -0.24782E-05  1216   0.206E-05-0.128E-06
 gam= 0.318 trial= 0.664  step= 0.728 mean= 0.664
 gam= 0.229 g(H,U,f)=  0.456E-06 0.156E-07 0.222E-20 ort(H,U,f) =-0.959E-07 0.849E-07 0.126E-19
CGA:   8    -0.296496286337E+03   -0.73368E-06   -0.73399E-06  1216   0.472E-06-0.110E-07
 gam= 0.229 trial= 0.667  step= 0.703 mean= 0.667
 final diagonalization
  10 F= -.29649629E+03 E0= -.29649629E+03  d E =-.184100E-02
 ZBRENT: can't locate minimum, use default step
 trial-energy change:   -0.001841  1 .order   -0.001840   -0.002022   -0.001658
 step:   0.2953(harm=  0.4095)  dis= 0.00711  next Energy=  -296.500054 (dE=-0.561E-02)
 bond charge predicted
 wavefunctions rotated
       N       E                     dE             d eps       ncg     rms          ort
 gam= 0.000 g(H,U,f)=  0.123E+00 0.102E-02 0.146E-30 ort(H,U,f) = 0.000E+00 0.000E+00 0.000E+00
SDA:   1    -0.296443770728E+03    0.52515E-01    0.00000E+00  1216   0.124E+00 0.000E+00
 gam= 0.000 trial= 0.669  step= 0.739 mean= 0.669
 gam= 0.276 g(H,U,f)=  0.334E-01 0.749E-03 0.826E-32 ort(H,U,f) = 0.782E-03-0.778E-03 0.305E-31
CGA:   2    -0.296489511658E+03   -0.45741E-01   -0.45741E-01  1216   0.342E-01 0.398E-05
 gam= 0.276 trial= 0.672  step= 0.498 mean= 0.672
 gam= 0.142 g(H,U,f)=  0.468E-02 0.183E-03 0.106E-31 ort(H,U,f) =-0.876E-04 0.872E-04 0.304E-32
CGA:   3    -0.296498023357E+03   -0.85117E-02   -0.85113E-02  1216   0.486E-02-0.451E-06
 gam= 0.142 trial= 0.663  step= 0.512 mean= 0.663
 gam= 0.182 g(H,U,f)=  0.832E-03 0.543E-04 0.268E-32 ort(H,U,f) =-0.936E-04 0.950E-04 0.742E-32
CGA:   4    -0.296499266173E+03   -0.12428E-02   -0.12429E-02  1216   0.887E-03 0.137E-05
 gam= 0.182 trial= 0.656  step= 0.579 mean= 0.656
 gam= 0.215 g(H,U,f)=  0.164E-03 0.264E-04-0.417E-33 ort(H,U,f) =-0.476E-04 0.476E-04 0.000E+00
CGA:   5    -0.296499522835E+03   -0.25666E-03   -0.25666E-03  1216   0.191E-03-0.481E-07
 gam= 0.215 trial= 0.652  step= 0.699 mean= 0.652
 gam= 0.305 g(H,U,f)=  0.501E-04 0.802E-05-0.179E-33 ort(H,U,f) =-0.200E-04 0.195E-04 0.000E+00
CGA:   6    -0.296499589469E+03   -0.66635E-04   -0.66645E-04  1216   0.581E-04-0.459E-06
 gam= 0.305 trial= 0.654  step= 0.763 mean= 0.654
 gam= 0.314 g(H,U,f)=  0.169E-04 0.129E-05 0.204E-33 ort(H,U,f) =-0.522E-05 0.491E-05 0.622E-33
CGA:   7    -0.296499611582E+03   -0.22112E-04   -0.22129E-04  1216   0.182E-04-0.313E-06
 gam= 0.314 trial= 0.660  step= 0.730 mean= 0.660
 gam= 0.232 g(H,U,f)=  0.406E-05 0.158E-06-0.253E-34 ort(H,U,f) =-0.868E-06 0.852E-06-0.451E-33
CGA:   8    -0.296499618195E+03   -0.66127E-05   -0.66132E-05  1216   0.422E-05-0.162E-07
 gam= 0.232 trial= 0.663  step= 0.713 mean= 0.663
 gam= 0.202 g(H,U,f)=  0.834E-06 0.179E-07 0.184E-34 ort(H,U,f) =-0.835E-08 0.350E-07 0.000E+00
CGA:   9    -0.296499619698E+03   -0.15034E-05   -0.15028E-05  1216   0.852E-06 0.267E-07
 gam= 0.202 trial= 0.666  step= 0.765 mean= 0.666
 final diagonalization
  11 F= -.29649962E+03 E0= -.29649962E+03  d E =-.517436E-02
 curvature:  -1.17 expect dE=-0.105E-01 dE for cont linesearch -0.387E-03
 ZBRENT: increasing intervall
 opt :   0.7382  next Energy=  -296.496454 (dE=-0.201E-02)
 bond charge predicted
 wavefunctions rotated
       N       E                     dE             d eps       ncg     rms          ort
 gam= 0.000 g(H,U,f)=  0.492E+00 0.423E-02-0.542E-30 ort(H,U,f) = 0.000E+00 0.000E+00 0.000E+00
SDA:   1    -0.296272870823E+03    0.22675E+00    0.00000E+00  1216   0.496E+00 0.000E+00
 gam= 0.000 trial= 0.671  step= 0.738 mean= 0.671
 gam= 0.277 g(H,U,f)=  0.134E+00 0.299E-02-0.870E-31 ort(H,U,f) = 0.315E-02-0.318E-02 0.358E-30
CGA:   2    -0.296455823904E+03   -0.18295E+00   -0.18296E+00  1216   0.137E+00-0.220E-04
 gam= 0.277 trial= 0.674  step= 0.498 mean= 0.674
 gam= 0.143 g(H,U,f)=  0.188E-01 0.775E-03-0.237E-33 ort(H,U,f) =-0.369E-03 0.371E-03 0.000E+00
CGA:   3    -0.296490020264E+03   -0.34196E-01   -0.34195E-01  1216   0.196E-01 0.170E-05
 gam= 0.143 trial= 0.665  step= 0.511 mean= 0.665
 gam= 0.184 g(H,U,f)=  0.337E-02 0.227E-03-0.706E-31 ort(H,U,f) =-0.397E-03 0.400E-03-0.180E-30
CGA:   4    -0.296495034757E+03   -0.50145E-02   -0.50148E-02  1216   0.360E-02 0.266E-05
 gam= 0.184 trial= 0.658  step= 0.579 mean= 0.658
 gam= 0.216 g(H,U,f)=  0.670E-03 0.109E-03-0.239E-34 ort(H,U,f) =-0.199E-03 0.199E-03 0.000E+00
CGA:   5    -0.296496077817E+03   -0.10431E-02   -0.10431E-02  1216   0.779E-03-0.213E-06
 gam= 0.216 trial= 0.654  step= 0.700 mean= 0.654
 gam= 0.306 g(H,U,f)=  0.204E-03 0.336E-04-0.108E-34 ort(H,U,f) =-0.823E-04 0.818E-04 0.000E+00
CGA:   6    -0.296496350248E+03   -0.27243E-03   -0.27244E-03  1216   0.238E-03-0.554E-06
 gam= 0.306 trial= 0.656  step= 0.762 mean= 0.656
 gam= 0.312 g(H,U,f)=  0.689E-04 0.538E-05 0.803E-32 ort(H,U,f) =-0.207E-04 0.204E-04 0.295E-31
CGA:   7    -0.296496440812E+03   -0.90564E-04   -0.90584E-04  1216   0.743E-04-0.367E-06
 gam= 0.312 trial= 0.661  step= 0.731 mean= 0.661
 gam= 0.232 g(H,U,f)=  0.166E-04 0.662E-06-0.218E-32 ort(H,U,f) =-0.353E-05 0.357E-05-0.106E-31
CGA:   8    -0.296496467898E+03   -0.27086E-04   -0.27084E-04  1216   0.172E-04 0.462E-07
 gam= 0.232 trial= 0.665  step= 0.715 mean= 0.665
 gam= 0.202 g(H,U,f)=  0.341E-05 0.785E-07 0.963E-36 ort(H,U,f) =-0.875E-07 0.157E-06 0.000E+00
CGA:   9    -0.296496474064E+03   -0.61659E-05   -0.61642E-05  1216   0.349E-05 0.694E-07
 gam= 0.202 trial= 0.667  step= 0.758 mean= 0.667
 gam= 0.224 g(H,U,f)=  0.763E-06 0.179E-07 0.805E-34 ort(H,U,f) =-0.290E-07-0.695E-08 0.377E-33
CGA:  10    -0.296496475388E+03   -0.13237E-05   -0.13254E-05  1216   0.781E-06-0.359E-07
 gam= 0.224 trial= 0.672  step= 0.790 mean= 0.672
 final diagonalization
  12 F= -.29649648E+03 E0= -.29649648E+03  d E =-.203005E-02
 curvature:   9.57 expect dE= 0.555E+00 dE for cont linesearch  0.258E-01
 ZBRENT: bracketing found
 ZBRENT: interpolating
 opt :   0.4102  next Energy=  -296.500059 (dE=-0.561E-02)
 bond charge predicted
 wavefunctions rotated
       N       E                     dE             d eps       ncg     rms          ort
 gam= 0.000 g(H,U,f)=  0.269E+00 0.214E-02-0.170E-29 ort(H,U,f) = 0.000E+00 0.000E+00 0.000E+00
SDA:   1    -0.296377424656E+03    0.11905E+00    0.00000E+00  1216   0.272E+00 0.000E+00
 gam= 0.000 trial= 0.678  step= 0.740 mean= 0.678
 gam= 0.275 g(H,U,f)=  0.730E-01 0.174E-02 0.139E-33 ort(H,U,f) = 0.163E-02-0.166E-02 0.000E+00
CGA:   2    -0.296477966855E+03   -0.10054E+00   -0.10054E+00  1216   0.747E-01-0.226E-04
 gam= 0.275 trial= 0.681  step= 0.498 mean= 0.681
 gam= 0.142 g(H,U,f)=  0.103E-01 0.357E-03-0.298E-35 ort(H,U,f) =-0.198E-03 0.202E-03 0.000E+00
CGA:   3    -0.296496579170E+03   -0.18612E-01   -0.18614E-01  1216   0.106E-01 0.391E-05
 gam= 0.142 trial= 0.672  step= 0.511 mean= 0.672
 gam= 0.183 g(H,U,f)=  0.183E-02 0.116E-03-0.850E-31 ort(H,U,f) =-0.200E-03 0.197E-03-0.197E-30
CGA:   4    -0.296499292009E+03   -0.27128E-02   -0.27126E-02  1216   0.194E-02-0.254E-05
 gam= 0.183 trial= 0.664  step= 0.576 mean= 0.664
 gam= 0.212 g(H,U,f)=  0.355E-03 0.570E-04 0.230E-23 ort(H,U,f) =-0.101E-03 0.101E-03 0.566E-24
CGA:   5    -0.296499851437E+03   -0.55943E-03   -0.55943E-03  1216   0.412E-03 0.578E-07
 gam= 0.212 trial= 0.659  step= 0.694 mean= 0.659
 gam= 0.299 g(H,U,f)=  0.106E-03 0.168E-04 0.859E-24 ort(H,U,f) =-0.399E-04 0.411E-04 0.144E-23
CGA:   6    -0.296499994564E+03   -0.14313E-03   -0.14311E-03  1216   0.123E-03 0.118E-05
 gam= 0.299 trial= 0.661  step= 0.759 mean= 0.661
 gam= 0.310 g(H,U,f)=  0.353E-04 0.294E-05 0.352E-24 ort(H,U,f) =-0.103E-04 0.110E-04 0.814E-24
CGA:   7    -0.296500041463E+03   -0.46899E-04   -0.46862E-04  1216   0.382E-04 0.754E-06
 gam= 0.310 trial= 0.666  step= 0.734 mean= 0.666
 gam= 0.236 g(H,U,f)=  0.863E-05 0.392E-06 0.118E-24 ort(H,U,f) =-0.188E-05 0.198E-05 0.338E-24
CGA:   8    -0.296500055587E+03   -0.14123E-04   -0.14120E-04  1216   0.902E-05 0.958E-07
 gam= 0.236 trial= 0.669  step= 0.721 mean= 0.669
 gam= 0.205 g(H,U,f)=  0.181E-05 0.407E-07 0.255E-25 ort(H,U,f) =-0.127E-06 0.102E-06 0.935E-25
CGA:   9    -0.296500058847E+03   -0.32603E-05   -0.32609E-05  1216   0.185E-05-0.246E-07
 gam= 0.205 trial= 0.672  step= 0.734 mean= 0.672
 final diagonalization
  13 F= -.29650006E+03 E0= -.29650006E+03  d E =-.561351E-02
 curvature:  -0.16 expect dE=-0.210E-02 dE for cont linesearch -0.239E-10
 trial: gam= 0.45122 g(F)=  0.129E-01 g(S)=  0.000E+00 ort =-0.509E-05 (trialstep = 0.141E+00)
 search vector abs. value=  0.489E-01
 bond charge predicted
 wavefunctions rotated
       N       E                     dE             d eps       ncg     rms          ort
 gam= 0.000 g(H,U,f)=  0.128E-01 0.190E-03 0.179E-22 ort(H,U,f) = 0.000E+00 0.000E+00 0.000E+00
SDA:   1    -0.296495629463E+03    0.44261E-02    0.00000E+00  1216   0.130E-01 0.000E+00
 gam= 0.000 trial= 0.675  step= 0.685 mean= 0.675
 gam= 0.338 g(H,U,f)=  0.421E-02 0.204E-03 0.940E-24 ort(H,U,f) = 0.184E-03-0.181E-03-0.384E-23
CGA:   2    -0.296500093003E+03   -0.44635E-02   -0.44635E-02  1216   0.441E-02 0.257E-05
 gam= 0.338 trial= 0.675  step= 0.500 mean= 0.675
 gam= 0.139 g(H,U,f)=  0.589E-03 0.231E-04 0.176E-23 ort(H,U,f) = 0.204E-05-0.870E-06-0.872E-24
CGA:   3    -0.296501195846E+03   -0.11028E-02   -0.11030E-02  1216   0.612E-03 0.117E-05
 gam= 0.139 trial= 0.667  step= 0.524 mean= 0.667
 gam= 0.182 g(H,U,f)=  0.106E-03 0.513E-05 0.506E-24 ort(H,U,f) =-0.867E-05 0.874E-05 0.877E-24
CGA:   4    -0.296501356345E+03   -0.16050E-03   -0.16050E-03  1216   0.111E-03 0.719E-07
 gam= 0.182 trial= 0.660  step= 0.579 mean= 0.660
 gam= 0.213 g(H,U,f)=  0.212E-04 0.254E-05 0.236E-24 ort(H,U,f) =-0.418E-05 0.423E-05 0.494E-24
CGA:   5    -0.296501388617E+03   -0.32273E-04   -0.32275E-04  1216   0.238E-04 0.543E-07
 gam= 0.213 trial= 0.656  step= 0.665 mean= 0.656
 gam= 0.286 g(H,U,f)=  0.595E-05 0.841E-06 0.285E-24 ort(H,U,f) =-0.180E-05 0.182E-05 0.415E-24
CGA:   6    -0.296501396533E+03   -0.79153E-05   -0.79154E-05  1216   0.679E-05 0.182E-07
 gam= 0.286 trial= 0.656  step= 0.753 mean= 0.656
 gam= 0.311 g(H,U,f)=  0.193E-05 0.177E-06 0.122E-24 ort(H,U,f) =-0.559E-06 0.514E-06 0.299E-24
CGA:   7    -0.296501399090E+03   -0.25570E-05   -0.25590E-05  1216   0.211E-05-0.454E-07
 gam= 0.311 trial= 0.661  step= 0.739 mean= 0.661
 gam= 0.244 g(H,U,f)=  0.497E-06 0.188E-07 0.882E-26 ort(H,U,f) =-0.801E-07 0.103E-06 0.652E-25
CGA:   8    -0.296501399865E+03   -0.77533E-06   -0.77434E-06  1216   0.516E-06 0.231E-07
 gam= 0.244 trial= 0.665  step= 0.739 mean= 0.665
 final diagonalization
  14 F= -.29650140E+03 E0= -.29650140E+03  d E =-.134102E-02
 trial-energy change:   -0.001341  1 .order   -0.001342   -0.001815   -0.000869
 step:   0.2708(harm=  0.2708)  dis= 0.00379  next Energy=  -296.501801 (dE=-0.174E-02)
 bond charge predicted
 wavefunctions rotated
       N       E                     dE             d eps       ncg     rms          ort
 gam= 0.000 g(H,U,f)=  0.109E-01 0.161E-03 0.873E-22 ort(H,U,f) = 0.000E+00 0.000E+00 0.000E+00
SDA:   1    -0.296496922228E+03    0.44769E-02    0.00000E+00  1216   0.110E-01 0.000E+00
 gam= 0.000 trial= 0.668  step= 0.685 mean= 0.668
 gam= 0.338 g(H,U,f)=  0.355E-02 0.173E-03 0.164E-23 ort(H,U,f) = 0.156E-03-0.154E-03-0.125E-22
CGA:   2    -0.296500696301E+03   -0.37741E-02   -0.37741E-02  1216   0.372E-02 0.267E-05
 gam= 0.338 trial= 0.669  step= 0.500 mean= 0.669
 gam= 0.138 g(H,U,f)=  0.495E-03 0.196E-04 0.961E-23 ort(H,U,f) = 0.195E-05-0.816E-06-0.669E-23
CGA:   3    -0.296501626942E+03   -0.93064E-03   -0.93074E-03  1216   0.514E-03 0.114E-05
 gam= 0.138 trial= 0.661  step= 0.526 mean= 0.661
 gam= 0.182 g(H,U,f)=  0.891E-04 0.434E-05 0.308E-23 ort(H,U,f) =-0.734E-05 0.740E-05 0.523E-23
CGA:   4    -0.296501762132E+03   -0.13519E-03   -0.13519E-03  1216   0.934E-04 0.637E-07
 gam= 0.182 trial= 0.654  step= 0.579 mean= 0.654
 gam= 0.215 g(H,U,f)=  0.179E-04 0.216E-05 0.140E-23 ort(H,U,f) =-0.355E-05 0.359E-05 0.294E-23
CGA:   5    -0.296501789184E+03   -0.27052E-04   -0.27053E-04  1216   0.201E-04 0.486E-07
 gam= 0.215 trial= 0.650  step= 0.667 mean= 0.650
 gam= 0.289 g(H,U,f)=  0.509E-05 0.712E-06 0.175E-23 ort(H,U,f) =-0.153E-05 0.155E-05 0.251E-23
CGA:   6    -0.296501795889E+03   -0.67058E-05   -0.67056E-05  1216   0.580E-05 0.157E-07
 gam= 0.289 trial= 0.651  step= 0.753 mean= 0.651
 gam= 0.313 g(H,U,f)=  0.167E-05 0.149E-06 0.759E-24 ort(H,U,f) =-0.475E-06 0.434E-06 0.183E-23
CGA:   7    -0.296501798074E+03   -0.21844E-05   -0.21867E-05  1216   0.182E-05-0.418E-07
 gam= 0.313 trial= 0.656  step= 0.740 mean= 0.656
 gam= 0.246 g(H,U,f)=  0.432E-06 0.152E-07 0.554E-25 ort(H,U,f) =-0.655E-07 0.849E-07 0.403E-24
CGA:   8    -0.296501798742E+03   -0.66841E-06   -0.66743E-06  1216   0.447E-06 0.193E-07
 gam= 0.246 trial= 0.660  step= 0.739 mean= 0.660
 final diagonalization
  15 F= -.29650180E+03 E0= -.29650180E+03  d E =-.173990E-02
 curvature:  -0.51 expect dE=-0.271E-02 dE for cont linesearch -0.353E-08
 trial: gam= 0.41263 g(F)=  0.527E-02 g(S)=  0.000E+00 ort = 0.183E-04 (trialstep = 0.167E+00)
 search vector abs. value=  0.136E-01
 bond charge predicted
 wavefunctions rotated
       N       E                     dE             d eps       ncg     rms          ort
 gam= 0.000 g(H,U,f)=  0.332E-02 0.334E-04 0.143E-20 ort(H,U,f) = 0.000E+00 0.000E+00 0.000E+00
SDA:   1    -0.296501089126E+03    0.70895E-03    0.00000E+00  1216   0.336E-02 0.000E+00
 gam= 0.000 trial= 0.664  step= 0.738 mean= 0.664
 gam= 0.299 g(H,U,f)=  0.966E-03 0.355E-04 0.263E-20 ort(H,U,f) = 0.274E-04-0.295E-04-0.216E-20
CGA:   2    -0.296502327763E+03   -0.12386E-02   -0.12387E-02  1216   0.100E-02-0.212E-05
 gam= 0.299 trial= 0.668  step= 0.502 mean= 0.668
 gam= 0.147 g(H,U,f)=  0.142E-03 0.525E-05 0.391E-23 ort(H,U,f) =-0.296E-05 0.497E-05-0.723E-22
CGA:   3    -0.296502578836E+03   -0.25107E-03   -0.25123E-03  1216   0.147E-03 0.201E-05
 gam= 0.147 trial= 0.660  step= 0.512 mean= 0.660
 gam= 0.205 g(H,U,f)=  0.286E-04 0.166E-05 0.292E-22 ort(H,U,f) =-0.269E-05 0.287E-05 0.192E-22
CGA:   4    -0.296502616614E+03   -0.37777E-04   -0.37791E-04  1216   0.303E-04 0.182E-06
 gam= 0.205 trial= 0.652  step= 0.585 mean= 0.652
 gam= 0.238 g(H,U,f)=  0.641E-05 0.787E-06 0.365E-22 ort(H,U,f) =-0.129E-05 0.152E-05 0.393E-22
CGA:   5    -0.296502625475E+03   -0.88617E-05   -0.88690E-05  1216   0.720E-05 0.223E-06
 gam= 0.238 trial= 0.649  step= 0.723 mean= 0.649
 gam= 0.345 g(H,U,f)=  0.226E-05 0.221E-06 0.138E-24 ort(H,U,f) =-0.698E-06 0.543E-06-0.306E-23
CGA:   6    -0.296502628091E+03   -0.26156E-05   -0.26214E-05  1216   0.248E-05-0.155E-06
 gam= 0.345 trial= 0.653  step= 0.736 mean= 0.653
 gam= 0.298 g(H,U,f)=  0.703E-06 0.361E-07 0.185E-27 ort(H,U,f) =-0.179E-06 0.140E-06-0.369E-25
CGA:   7    -0.296502628982E+03   -0.89133E-06   -0.89287E-06  1216   0.739E-06-0.390E-07
 gam= 0.298 trial= 0.657  step= 0.667 mean= 0.657
 gam= 0.211 g(H,U,f)=  0.153E-06 0.318E-08 0.102E-24 ort(H,U,f) = 0.300E-07 0.186E-07-0.278E-24
CGA:   8    -0.296502629225E+03   -0.24277E-06   -0.24253E-06  1216   0.156E-06 0.486E-07
 gam= 0.211 trial= 0.657  step= 0.711 mean= 0.657
 final diagonalization
  16 F= -.29650263E+03 E0= -.29650263E+03  d E =-.830483E-03
 ZBRENT: can't locate minimum, use default step
 trial-energy change:   -0.000830  1 .order   -0.000830   -0.000882   -0.000778
 step:   0.6682(harm=  1.4200)  dis= 0.00605  next Energy=  -296.505547 (dE=-0.375E-02)
 bond charge predicted
 wavefunctions rotated
       N       E                     dE             d eps       ncg     rms          ort
 gam= 0.000 g(H,U,f)=  0.299E-01 0.300E-03 0.133E-18 ort(H,U,f) = 0.000E+00 0.000E+00 0.000E+00
SDA:   1    -0.296490629628E+03    0.11999E-01    0.00000E+00  1216   0.302E-01 0.000E+00
 gam= 0.000 trial= 0.660  step= 0.738 mean= 0.660
 gam= 0.298 g(H,U,f)=  0.867E-02 0.317E-03 0.355E-18 ort(H,U,f) = 0.265E-03-0.265E-03-0.293E-18
CGA:   2    -0.296501780244E+03   -0.11151E-01   -0.11150E-01  1216   0.899E-02-0.617E-06
 gam= 0.298 trial= 0.664  step= 0.503 mean= 0.664
 gam= 0.148 g(H,U,f)=  0.128E-02 0.467E-04 0.231E-21 ort(H,U,f) =-0.385E-04 0.443E-04-0.538E-20
CGA:   3    -0.296504040806E+03   -0.22606E-02   -0.22608E-02  1216   0.133E-02 0.573E-05
 gam= 0.148 trial= 0.656  step= 0.511 mean= 0.656
 gam= 0.206 g(H,U,f)=  0.258E-03 0.150E-04 0.297E-20 ort(H,U,f) =-0.252E-04 0.258E-04 0.209E-20
CGA:   4    -0.296504381055E+03   -0.34025E-03   -0.34029E-03  1216   0.273E-03 0.545E-06
 gam= 0.206 trial= 0.649  step= 0.587 mean= 0.649
 gam= 0.238 g(H,U,f)=  0.581E-04 0.709E-05 0.336E-20 ort(H,U,f) =-0.130E-04 0.136E-04 0.370E-20
CGA:   5    -0.296504461354E+03   -0.80299E-04   -0.80320E-04  1216   0.652E-04 0.668E-06
 gam= 0.238 trial= 0.646  step= 0.711 mean= 0.646
 gam= 0.332 g(H,U,f)=  0.196E-04 0.201E-05 0.128E-23 ort(H,U,f) =-0.540E-05 0.497E-05-0.860E-22
CGA:   6    -0.296504484575E+03   -0.23221E-04   -0.23236E-04  1216   0.216E-04-0.428E-06
 gam= 0.332 trial= 0.649  step= 0.737 mean= 0.649
 gam= 0.300 g(H,U,f)=  0.615E-05 0.346E-06 0.104E-23 ort(H,U,f) =-0.142E-05 0.131E-05 0.264E-22
CGA:   7    -0.296504492482E+03   -0.79066E-05   -0.79111E-05  1216   0.650E-05-0.107E-06
 gam= 0.300 trial= 0.653  step= 0.702 mean= 0.653
 gam= 0.224 g(H,U,f)=  0.143E-05 0.312E-07 0.516E-23 ort(H,U,f) =-0.166E-07 0.171E-06-0.215E-22
CGA:   8    -0.296504494754E+03   -0.22718E-05   -0.22682E-05  1216   0.146E-05 0.155E-06
 gam= 0.224 trial= 0.656  step= 0.721 mean= 0.656
 final diagonalization
  17 F= -.29650449E+03 E0= -.29650449E+03  d E =-.269601E-02
 curvature:  -1.17 expect dE=-0.460E-02 dE for cont linesearch -0.670E-03
 ZBRENT: increasing intervall
 opt :   1.6705  next Energy=  -296.505420 (dE=-0.362E-02)
 bond charge predicted
 wavefunctions rotated
       N       E                     dE             d eps       ncg     rms          ort
 gam= 0.000 g(H,U,f)=  0.120E+00 0.120E-02 0.669E-17 ort(H,U,f) = 0.000E+00 0.000E+00 0.000E+00
SDA:   1    -0.296449888064E+03    0.54604E-01    0.00000E+00  1216   0.121E+00 0.000E+00
 gam= 0.000 trial= 0.659  step= 0.739 mean= 0.659
 gam= 0.296 g(H,U,f)=  0.346E-01 0.126E-02 0.734E-17 ort(H,U,f) = 0.110E-02-0.106E-02-0.620E-17
CGA:   2    -0.296494582230E+03   -0.44694E-01   -0.44691E-01  1216   0.358E-01 0.374E-04
 gam= 0.296 trial= 0.663  step= 0.504 mean= 0.663
 gam= 0.148 g(H,U,f)=  0.513E-02 0.185E-03 0.376E-20 ort(H,U,f) =-0.166E-03 0.176E-03-0.155E-18
CGA:   3    -0.296503608613E+03   -0.90264E-02   -0.90258E-02  1216   0.531E-02 0.973E-05
 gam= 0.148 trial= 0.655  step= 0.512 mean= 0.655
 gam= 0.206 g(H,U,f)=  0.103E-02 0.600E-04 0.170E-18 ort(H,U,f) =-0.102E-03 0.103E-03 0.130E-18
CGA:   4    -0.296504967288E+03   -0.13587E-02   -0.13588E-02  1216   0.109E-02 0.123E-05
 gam= 0.206 trial= 0.648  step= 0.588 mean= 0.648
 gam= 0.239 g(H,U,f)=  0.233E-03 0.284E-04 0.167E-18 ort(H,U,f) =-0.533E-04 0.546E-04 0.192E-18
CGA:   5    -0.296505288497E+03   -0.32121E-03   -0.32125E-03  1216   0.261E-03 0.133E-05
 gam= 0.239 trial= 0.645  step= 0.708 mean= 0.645
 gam= 0.329 g(H,U,f)=  0.778E-04 0.805E-05 0.746E-22 ort(H,U,f) =-0.207E-04 0.200E-04 0.445E-20
CGA:   6    -0.296505381124E+03   -0.92627E-04   -0.92651E-04  1216   0.859E-04-0.763E-06
 gam= 0.329 trial= 0.648  step= 0.736 mean= 0.648
 gam= 0.301 g(H,U,f)=  0.244E-04 0.141E-05 0.189E-21 ort(H,U,f) =-0.545E-05 0.530E-05 0.256E-20
CGA:   7    -0.296505412614E+03   -0.31489E-04   -0.31496E-04  1216   0.259E-04-0.158E-06
 gam= 0.301 trial= 0.652  step= 0.711 mean= 0.652
 gam= 0.229 g(H,U,f)=  0.578E-05 0.129E-06 0.101E-21 ort(H,U,f) =-0.369E-06 0.697E-06-0.735E-21
CGA:   8    -0.296505421794E+03   -0.91804E-05   -0.91707E-05  1216   0.591E-05 0.329E-06
 gam= 0.229 trial= 0.655  step= 0.720 mean= 0.655
 gam= 0.212 g(H,U,f)=  0.123E-05 0.227E-07 0.437E-21 ort(H,U,f) =-0.529E-07 0.770E-07-0.149E-21
CGA:   9    -0.296505423951E+03   -0.21571E-05   -0.21561E-05  1216   0.125E-05 0.241E-07
 gam= 0.212 trial= 0.659  step= 0.748 mean= 0.659
 final diagonalization
  18 F= -.29650542E+03 E0= -.29650542E+03  d E =-.362521E-02
 curvature:  -1.62 expect dE=-0.255E-01 dE for cont linesearch -0.104E-03
 trial: gam= 3.18411 g(F)=  0.158E-01 g(S)=  0.000E+00 ort =-0.935E-03 (trialstep = 0.431E-01)
 search vector abs. value=  0.148E+00
 bond charge predicted
 wavefunctions rotated
       N       E                     dE             d eps       ncg     rms          ort
 gam= 0.000 g(H,U,f)=  0.250E-02 0.231E-04 0.266E-19 ort(H,U,f) = 0.000E+00 0.000E+00 0.000E+00
SDA:   1    -0.296504803279E+03    0.61851E-03    0.00000E+00  1216   0.253E-02 0.000E+00
 gam= 0.000 trial= 0.663  step= 0.742 mean= 0.663
 gam= 0.269 g(H,U,f)=  0.663E-03 0.167E-04 0.172E-23 ort(H,U,f) = 0.177E-04-0.180E-04 0.110E-21
CGA:   2    -0.296505741138E+03   -0.93786E-03   -0.93787E-03  1216   0.679E-03-0.277E-06
 gam= 0.269 trial= 0.667  step= 0.509 mean= 0.667
 gam= 0.152 g(H,U,f)=  0.101E-03 0.244E-05 0.414E-22 ort(H,U,f) =-0.171E-05 0.239E-05 0.157E-21
CGA:   3    -0.296505914141E+03   -0.17300E-03   -0.17306E-03  1216   0.103E-03 0.675E-06
 gam= 0.152 trial= 0.659  step= 0.507 mean= 0.659
 gam= 0.203 g(H,U,f)=  0.201E-04 0.922E-06 0.199E-21 ort(H,U,f) =-0.137E-05 0.151E-05-0.149E-21
CGA:   4    -0.296505940395E+03   -0.26254E-04   -0.26264E-04  1216   0.210E-04 0.137E-06
 gam= 0.203 trial= 0.652  step= 0.568 mean= 0.652
 gam= 0.218 g(H,U,f)=  0.409E-05 0.488E-06 0.149E-21 ort(H,U,f) =-0.814E-06 0.844E-06 0.154E-21
CGA:   5    -0.296505946362E+03   -0.59669E-05   -0.59681E-05  1216   0.457E-05 0.300E-07
 gam= 0.218 trial= 0.647  step= 0.710 mean= 0.647
 gam= 0.311 g(H,U,f)=  0.129E-05 0.135E-06 0.390E-23 ort(H,U,f) =-0.383E-06 0.338E-06 0.316E-22
CGA:   6    -0.296505947986E+03   -0.16244E-05   -0.16256E-05  1216   0.142E-05-0.449E-07
 gam= 0.311 trial= 0.650  step= 0.731 mean= 0.650
 gam= 0.301 g(H,U,f)=  0.400E-06 0.270E-07 0.326E-23 ort(H,U,f) =-0.100E-06 0.942E-07 0.135E-22
CGA:   7    -0.296505948501E+03   -0.51476E-06   -0.51469E-06  1216   0.427E-06-0.573E-08
 gam= 0.301 trial= 0.655  step= 0.715 mean= 0.655
 gam= 0.229 g(H,U,f)=  0.943E-07 0.365E-08 0.318E-23 ort(H,U,f) =-0.150E-07 0.176E-07 0.738E-23
CGA:   8    -0.296505948653E+03   -0.15221E-06   -0.15210E-06  1216   0.979E-07 0.256E-08
 gam= 0.229 trial= 0.658  step= 0.726 mean= 0.658
 final diagonalization
  19 F= -.29650595E+03 E0= -.29650595E+03  d E =-.524702E-03
 ZBRENT: can't locate minimum, use default step
 trial-energy change:   -0.000525  1 .order   -0.000524   -0.000550   -0.000498
 step:   0.1723(harm=  0.4491)  dis= 0.00543  next Energy=  -296.508293 (dE=-0.287E-02)
 bond charge predicted
 wavefunctions rotated
       N       E                     dE             d eps       ncg     rms          ort
 gam= 0.000 g(H,U,f)=  0.226E-01 0.211E-03 0.785E-19 ort(H,U,f) = 0.000E+00 0.000E+00 0.000E+00
SDA:   1    -0.296496885229E+03    0.90633E-02    0.00000E+00  1216   0.228E-01 0.000E+00
 gam= 0.000 trial= 0.661  step= 0.742 mean= 0.661
 gam= 0.268 g(H,U,f)=  0.596E-02 0.150E-03 0.167E-22 ort(H,U,f) = 0.163E-03-0.162E-03 0.113E-20
CGA:   2    -0.296505333724E+03   -0.84485E-02   -0.84484E-02  1216   0.611E-02 0.282E-06
 gam= 0.268 trial= 0.665  step= 0.510 mean= 0.665
 gam= 0.152 g(H,U,f)=  0.908E-03 0.217E-04 0.103E-21 ort(H,U,f) =-0.191E-04 0.211E-04 0.822E-21
CGA:   3    -0.296506891883E+03   -0.15582E-02   -0.15583E-02  1216   0.930E-03 0.197E-05
 gam= 0.152 trial= 0.657  step= 0.509 mean= 0.657
 gam= 0.202 g(H,U,f)=  0.179E-03 0.824E-05 0.258E-20 ort(H,U,f) =-0.131E-04 0.135E-04-0.117E-20
CGA:   4    -0.296507128748E+03   -0.23687E-03   -0.23689E-03  1216   0.188E-03 0.385E-06
 gam= 0.202 trial= 0.650  step= 0.573 mean= 0.650
 gam= 0.218 g(H,U,f)=  0.366E-04 0.431E-05 0.174E-20 ort(H,U,f) =-0.740E-05 0.746E-05 0.197E-20
CGA:   5    -0.296507182493E+03   -0.53744E-04   -0.53747E-04  1216   0.409E-04 0.539E-07
 gam= 0.218 trial= 0.646  step= 0.700 mean= 0.646
 gam= 0.304 g(H,U,f)=  0.112E-04 0.120E-05 0.604E-22 ort(H,U,f) =-0.310E-05 0.300E-05 0.412E-21
CGA:   6    -0.296507196827E+03   -0.14334E-04   -0.14337E-04  1216   0.124E-04-0.994E-07
 gam= 0.304 trial= 0.649  step= 0.731 mean= 0.649
 gam= 0.302 g(H,U,f)=  0.352E-05 0.246E-06 0.519E-22 ort(H,U,f) =-0.873E-06 0.847E-06 0.175E-21
CGA:   7    -0.296507201363E+03   -0.45366E-05   -0.45376E-05  1216   0.376E-05-0.257E-07
 gam= 0.302 trial= 0.653  step= 0.715 mean= 0.653
 gam= 0.228 g(H,U,f)=  0.824E-06 0.343E-07 0.237E-22 ort(H,U,f) =-0.156E-06 0.165E-06 0.721E-22
CGA:   8    -0.296507202706E+03   -0.13430E-05   -0.13427E-05  1216   0.858E-06 0.863E-08
 gam= 0.228 trial= 0.656  step= 0.724 mean= 0.656
 final diagonalization
  20 F= -.29650720E+03 E0= -.29650720E+03  d E =-.177876E-02
 curvature:  -1.39 expect dE=-0.143E-01 dE for cont linesearch -0.582E-03
 ZBRENT: increasing intervall
 opt :   0.4308  next Energy=  -296.508282 (dE=-0.286E-02)
 bond charge predicted
 wavefunctions rotated
       N       E                     dE             d eps       ncg     rms          ort
 gam= 0.000 g(H,U,f)=  0.902E-01 0.839E-03 0.688E-18 ort(H,U,f) = 0.000E+00 0.000E+00 0.000E+00
SDA:   1    -0.296466997427E+03    0.40204E-01    0.00000E+00  1216   0.911E-01 0.000E+00
 gam= 0.000 trial= 0.659  step= 0.743 mean= 0.659
 gam= 0.268 g(H,U,f)=  0.238E-01 0.602E-03 0.688E-20 ort(H,U,f) = 0.656E-03-0.648E-03 0.673E-19
CGA:   2    -0.296500809170E+03   -0.33812E-01   -0.33811E-01  1216   0.244E-01 0.795E-05
 gam= 0.268 trial= 0.664  step= 0.510 mean= 0.664
 gam= 0.152 g(H,U,f)=  0.363E-02 0.863E-04 0.942E-21 ort(H,U,f) =-0.818E-04 0.854E-04-0.978E-20
CGA:   3    -0.296507038883E+03   -0.62297E-02   -0.62300E-02  1216   0.372E-02 0.358E-05
 gam= 0.152 trial= 0.656  step= 0.510 mean= 0.656
 gam= 0.202 g(H,U,f)=  0.717E-03 0.332E-04 0.274E-19 ort(H,U,f) =-0.535E-04 0.543E-04-0.306E-20
CGA:   4    -0.296507986566E+03   -0.94768E-03   -0.94773E-03  1216   0.750E-03 0.722E-06
 gam= 0.202 trial= 0.649  step= 0.573 mean= 0.649
 gam= 0.219 g(H,U,f)=  0.147E-03 0.173E-04 0.191E-19 ort(H,U,f) =-0.300E-04 0.300E-04 0.233E-19
CGA:   5    -0.296508201554E+03   -0.21499E-03   -0.21499E-03  1216   0.164E-03 0.682E-07
 gam= 0.219 trial= 0.645  step= 0.699 mean= 0.645
 gam= 0.304 g(H,U,f)=  0.451E-04 0.480E-05 0.162E-20 ort(H,U,f) =-0.122E-04 0.121E-04 0.723E-20
CGA:   6    -0.296508258970E+03   -0.57417E-04   -0.57421E-04  1216   0.499E-04-0.148E-06
 gam= 0.304 trial= 0.647  step= 0.731 mean= 0.647
 gam= 0.302 g(H,U,f)=  0.141E-04 0.990E-06 0.737E-21 ort(H,U,f) =-0.344E-05 0.341E-05 0.265E-20
CGA:   7    -0.296508277165E+03   -0.18195E-04   -0.18196E-04  1216   0.151E-04-0.229E-07
 gam= 0.302 trial= 0.652  step= 0.716 mean= 0.652
 gam= 0.229 g(H,U,f)=  0.331E-05 0.139E-06 0.382E-21 ort(H,U,f) =-0.647E-06 0.664E-06 0.113E-20
CGA:   8    -0.296508282565E+03   -0.54001E-05   -0.53998E-05  1216   0.345E-05 0.162E-07
 gam= 0.229 trial= 0.655  step= 0.723 mean= 0.655
 gam= 0.210 g(H,U,f)=  0.708E-06 0.174E-07 0.116E-23 ort(H,U,f) =-0.796E-07 0.753E-07 0.180E-22
CGA:   9    -0.296508283814E+03   -0.12485E-05   -0.12489E-05  1216   0.725E-06-0.437E-08
 gam= 0.210 trial= 0.658  step= 0.732 mean= 0.658
 final diagonalization
  21 F= -.29650828E+03 E0= -.29650828E+03  d E =-.285986E-02
 curvature:  -2.58 expect dE=-0.301E-01 dE for cont linesearch -0.426E-05
 trial: gam= 0.37740 g(F)=  0.117E-01 g(S)=  0.000E+00 ort = 0.494E-03 (trialstep = 0.121E+00)
 search vector abs. value=  0.331E-01
 bond charge predicted
 wavefunctions rotated
       N       E                     dE             d eps       ncg     rms          ort
 gam= 0.000 g(H,U,f)=  0.483E-02 0.475E-04 0.159E-19 ort(H,U,f) = 0.000E+00 0.000E+00 0.000E+00
SDA:   1    -0.296507400355E+03    0.88221E-03    0.00000E+00  1216   0.488E-02 0.000E+00
 gam= 0.000 trial= 0.662  step= 0.689 mean= 0.662
 gam= 0.315 g(H,U,f)=  0.146E-02 0.711E-04 0.653E-19 ort(H,U,f) = 0.508E-04-0.463E-04-0.308E-19
CGA:   2    -0.296509082179E+03   -0.16818E-02   -0.16818E-02  1216   0.154E-02 0.442E-05
 gam= 0.315 trial= 0.663  step= 0.499 mean= 0.663
 gam= 0.153 g(H,U,f)=  0.229E-03 0.612E-05 0.161E-19 ort(H,U,f) =-0.475E-05 0.395E-05-0.292E-19
CGA:   3    -0.296509465703E+03   -0.38352E-03   -0.38347E-03  1216   0.235E-03-0.797E-06
 gam= 0.153 trial= 0.655  step= 0.531 mean= 0.655
 gam= 0.186 g(H,U,f)=  0.410E-04 0.251E-05 0.389E-20 ort(H,U,f) =-0.347E-05 0.349E-05 0.576E-20
CGA:   4    -0.296509528018E+03   -0.62316E-04   -0.62316E-04  1216   0.436E-04 0.174E-07
 gam= 0.186 trial= 0.649  step= 0.598 mean= 0.649
 gam= 0.232 g(H,U,f)=  0.887E-05 0.121E-05 0.435E-21 ort(H,U,f) =-0.223E-05 0.210E-05 0.168E-20
CGA:   5    -0.296509541055E+03   -0.13037E-04   -0.13033E-04  1216   0.101E-04-0.134E-06
 gam= 0.232 trial= 0.646  step= 0.690 mean= 0.646
 gam= 0.314 g(H,U,f)=  0.293E-05 0.234E-06 0.983E-21 ort(H,U,f) =-0.677E-06 0.677E-06 0.125E-20
CGA:   6    -0.296509544521E+03   -0.34659E-05   -0.34658E-05  1216   0.316E-05 0.499E-09
 gam= 0.314 trial= 0.649  step= 0.731 mean= 0.649
 gam= 0.296 g(H,U,f)=  0.872E-06 0.655E-07 0.238E-21 ort(H,U,f) =-0.207E-06 0.196E-06 0.684E-21
CGA:   7    -0.296509545676E+03   -0.11555E-05   -0.11561E-05  1216   0.937E-06-0.104E-07
 gam= 0.296 trial= 0.653  step= 0.755 mean= 0.653
 gam= 0.249 g(H,U,f)=  0.228E-06 0.529E-08 0.582E-22 ort(H,U,f) =-0.498E-07 0.188E-07 0.220E-21
CGA:   8    -0.296509546027E+03   -0.35099E-06   -0.35279E-06  1216   0.233E-06-0.310E-07
 gam= 0.249 trial= 0.658  step= 0.724 mean= 0.658
 final diagonalization
  22 F= -.29650955E+03 E0= -.29650955E+03  d E =-.126221E-02
 ZBRENT: can't locate minimum, use default step
 trial-energy change:   -0.001262  1 .order   -0.001264   -0.001429   -0.001099
 step:   0.4824(harm=  0.5224)  dis= 0.00649  next Energy=  -296.511378 (dE=-0.309E-02)
 bond charge predicted
 wavefunctions rotated
       N       E                     dE             d eps       ncg     rms          ort
 gam= 0.000 g(H,U,f)=  0.434E-01 0.425E-03 0.196E-18 ort(H,U,f) = 0.000E+00 0.000E+00 0.000E+00
SDA:   1    -0.296492063937E+03    0.17482E-01    0.00000E+00  1216   0.439E-01 0.000E+00
 gam= 0.000 trial= 0.661  step= 0.690 mean= 0.661
 gam= 0.315 g(H,U,f)=  0.132E-01 0.649E-03 0.703E-18 ort(H,U,f) = 0.423E-03-0.418E-03-0.324E-18
CGA:   2    -0.296507190456E+03   -0.15127E-01   -0.15127E-01  1216   0.138E-01 0.437E-05
 gam= 0.315 trial= 0.663  step= 0.498 mean= 0.663
 gam= 0.153 g(H,U,f)=  0.205E-02 0.556E-04 0.213E-18 ort(H,U,f) =-0.392E-04 0.371E-04-0.387E-18
CGA:   3    -0.296510637560E+03   -0.34471E-02   -0.34473E-02  1216   0.211E-02-0.213E-05
 gam= 0.153 trial= 0.654  step= 0.533 mean= 0.654
 gam= 0.185 g(H,U,f)=  0.368E-03 0.228E-04 0.529E-19 ort(H,U,f) =-0.321E-04 0.319E-04 0.776E-19
CGA:   4    -0.296511199444E+03   -0.56188E-03   -0.56186E-03  1216   0.391E-03-0.139E-06
 gam= 0.185 trial= 0.648  step= 0.600 mean= 0.648
 gam= 0.232 g(H,U,f)=  0.796E-04 0.110E-04 0.630E-20 ort(H,U,f) =-0.194E-04 0.190E-04 0.239E-19
CGA:   5    -0.296511316760E+03   -0.11732E-03   -0.11731E-03  1216   0.905E-04-0.425E-06
 gam= 0.232 trial= 0.646  step= 0.691 mean= 0.646
 gam= 0.314 g(H,U,f)=  0.264E-04 0.210E-05 0.142E-19 ort(H,U,f) =-0.607E-05 0.611E-05 0.182E-19
CGA:   6    -0.296511348014E+03   -0.31254E-04   -0.31254E-04  1216   0.285E-04 0.380E-07
 gam= 0.314 trial= 0.648  step= 0.730 mean= 0.648
 gam= 0.295 g(H,U,f)=  0.782E-05 0.586E-06 0.353E-20 ort(H,U,f) =-0.178E-05 0.177E-05 0.101E-19
CGA:   7    -0.296511358407E+03   -0.10392E-04   -0.10393E-04  1216   0.841E-05-0.176E-07
 gam= 0.295 trial= 0.652  step= 0.739 mean= 0.652
 gam= 0.239 g(H,U,f)=  0.196E-05 0.485E-07 0.898E-21 ort(H,U,f) =-0.279E-06 0.190E-06 0.334E-20
CGA:   8    -0.296511361506E+03   -0.31000E-05   -0.31039E-05  1216   0.201E-05-0.884E-07
 gam= 0.239 trial= 0.657  step= 0.735 mean= 0.657
 final diagonalization
  23 F= -.29651136E+03 E0= -.29651136E+03  d E =-.307769E-02
 curvature:  -0.72 expect dE=-0.445E-02 dE for cont linesearch -0.207E-04
 trial: gam= 0.50452 g(F)=  0.616E-02 g(S)=  0.000E+00 ort = 0.974E-03 (trialstep = 0.193E+00)
 search vector abs. value=  0.156E-01
 bond charge predicted
 wavefunctions rotated
       N       E                     dE             d eps       ncg     rms          ort
 gam= 0.000 g(H,U,f)=  0.103E-01 0.809E-04 0.144E-17 ort(H,U,f) = 0.000E+00 0.000E+00 0.000E+00
SDA:   1    -0.296507952404E+03    0.34060E-02    0.00000E+00  1216   0.103E-01 0.000E+00
 gam= 0.000 trial= 0.660  step= 0.696 mean= 0.660
 gam= 0.300 g(H,U,f)=  0.303E-02 0.621E-04 0.243E-17 ort(H,U,f) = 0.640E-04-0.576E-04-0.158E-17
CGA:   2    -0.296511546780E+03   -0.35944E-02   -0.35943E-02  1216   0.310E-02 0.636E-05
 gam= 0.300 trial= 0.662  step= 0.493 mean= 0.662
 gam= 0.148 g(H,U,f)=  0.446E-03 0.136E-04 0.367E-19 ort(H,U,f) =-0.106E-04 0.809E-05-0.286E-18
CGA:   3    -0.296512311395E+03   -0.76461E-03   -0.76444E-03  1216   0.459E-03-0.254E-05
 gam= 0.148 trial= 0.654  step= 0.517 mean= 0.654
 gam= 0.175 g(H,U,f)=  0.758E-04 0.464E-05 0.842E-21 ort(H,U,f) =-0.806E-05 0.764E-05-0.441E-21
CGA:   4    -0.296512430133E+03   -0.11874E-03   -0.11871E-03  1216   0.804E-04-0.418E-06
 gam= 0.175 trial= 0.647  step= 0.566 mean= 0.647
 gam= 0.208 g(H,U,f)=  0.145E-04 0.216E-05 0.952E-21 ort(H,U,f) =-0.441E-05 0.390E-05-0.844E-21
CGA:   5    -0.296512452892E+03   -0.22758E-04   -0.22738E-04  1216   0.167E-04-0.504E-06
 gam= 0.208 trial= 0.643  step= 0.641 mean= 0.643
 gam= 0.265 g(H,U,f)=  0.376E-05 0.662E-06 0.742E-21 ort(H,U,f) =-0.153E-05 0.161E-05-0.711E-21
CGA:   6    -0.296512458207E+03   -0.53155E-05   -0.53156E-05  1216   0.442E-05 0.769E-07
 gam= 0.265 trial= 0.643  step= 0.743 mean= 0.643
 gam= 0.309 g(H,U,f)=  0.122E-05 0.148E-06 0.421E-21 ort(H,U,f) =-0.476E-06 0.475E-06 0.428E-21
CGA:   7    -0.296512459858E+03   -0.16506E-05   -0.16508E-05  1216   0.137E-05-0.715E-09
 gam= 0.309 trial= 0.648  step= 0.802 mean= 0.648
 gam= 0.285 g(H,U,f)=  0.375E-06 0.152E-07 0.190E-21 ort(H,U,f) =-0.172E-06 0.844E-07 0.380E-21
CGA:   8    -0.296512460399E+03   -0.54139E-06   -0.54824E-06  1216   0.390E-06-0.877E-07
 gam= 0.285 trial= 0.656  step= 0.726 mean= 0.656
 final diagonalization
  24 F= -.29651246E+03 E0= -.29651246E+03  d E =-.109889E-02
 trial-energy change:   -0.001099  1 .order   -0.001098   -0.001283   -0.000914
 step:   0.6715(harm=  0.6715)  dis= 0.00498  next Energy=  -296.513593 (dE=-0.223E-02)
 bond charge predicted
 wavefunctions rotated
       N       E                     dE             d eps       ncg     rms          ort
 gam= 0.000 g(H,U,f)=  0.630E-01 0.496E-03 0.169E-17 ort(H,U,f) = 0.000E+00 0.000E+00 0.000E+00
SDA:   1    -0.296485890586E+03    0.26569E-01    0.00000E+00  1216   0.635E-01 0.000E+00
 gam= 0.000 trial= 0.659  step= 0.695 mean= 0.659
 gam= 0.300 g(H,U,f)=  0.187E-01 0.387E-03 0.173E-17 ort(H,U,f) = 0.358E-03-0.354E-03-0.112E-17
CGA:   2    -0.296507972427E+03   -0.22082E-01   -0.22082E-01  1216   0.191E-01 0.386E-05
 gam= 0.300 trial= 0.661  step= 0.493 mean= 0.661
 gam= 0.148 g(H,U,f)=  0.274E-02 0.838E-04 0.496E-19 ort(H,U,f) =-0.562E-04 0.508E-04-0.367E-18
CGA:   3    -0.296512674305E+03   -0.47019E-02   -0.47021E-02  1216   0.282E-02-0.545E-05
 gam= 0.148 trial= 0.652  step= 0.517 mean= 0.652
 gam= 0.176 g(H,U,f)=  0.468E-03 0.285E-04 0.591E-20 ort(H,U,f) =-0.483E-04 0.471E-04-0.176E-20
CGA:   4    -0.296513404942E+03   -0.73064E-03   -0.73054E-03  1216   0.497E-03-0.124E-05
 gam= 0.176 trial= 0.646  step= 0.564 mean= 0.646
 gam= 0.205 g(H,U,f)=  0.885E-04 0.133E-04 0.432E-20 ort(H,U,f) =-0.253E-04 0.240E-04-0.523E-20
CGA:   5    -0.296513545063E+03   -0.14012E-03   -0.14007E-03  1216   0.102E-03-0.128E-05
 gam= 0.205 trial= 0.642  step= 0.644 mean= 0.642
 gam= 0.268 g(H,U,f)=  0.232E-04 0.407E-05 0.567E-20 ort(H,U,f) =-0.963E-05 0.986E-05-0.405E-20
CGA:   6    -0.296513577774E+03   -0.32711E-04   -0.32711E-04  1216   0.273E-04 0.231E-06
 gam= 0.268 trial= 0.642  step= 0.742 mean= 0.642
 gam= 0.306 g(H,U,f)=  0.743E-05 0.910E-06 0.314E-20 ort(H,U,f) =-0.290E-05 0.293E-05 0.360E-20
CGA:   7    -0.296513587908E+03   -0.10134E-04   -0.10133E-04  1216   0.834E-05 0.222E-07
 gam= 0.306 trial= 0.647  step= 0.773 mean= 0.647
 gam= 0.265 g(H,U,f)=  0.211E-05 0.105E-06 0.152E-20 ort(H,U,f) =-0.769E-06 0.563E-06 0.308E-20
CGA:   8    -0.296513591121E+03   -0.32133E-05   -0.32267E-05  1216   0.221E-05-0.206E-06
 gam= 0.265 trial= 0.653  step= 0.743 mean= 0.653
 final diagonalization
  25 F= -.29651359E+03 E0= -.29651359E+03  d E =-.222961E-02
 curvature:  -0.79 expect dE=-0.809E-02 dE for cont linesearch -0.698E-08
 trial: gam= 1.79285 g(F)=  0.103E-01 g(S)=  0.000E+00 ort = 0.118E-04 (trialstep = 0.744E-01)
 search vector abs. value=  0.604E-01
 bond charge predicted
 wavefunctions rotated
       N       E                     dE             d eps       ncg     rms          ort
 gam= 0.000 g(H,U,f)=  0.622E-02 0.489E-04 0.844E-19 ort(H,U,f) = 0.000E+00 0.000E+00 0.000E+00
SDA:   1    -0.296511565753E+03    0.20222E-02    0.00000E+00  1216   0.627E-02 0.000E+00
 gam= 0.000 trial= 0.658  step= 0.708 mean= 0.658
 gam= 0.272 g(H,U,f)=  0.168E-02 0.265E-04 0.195E-18 ort(H,U,f) = 0.325E-04-0.307E-04-0.126E-18
CGA:   2    -0.296513784667E+03   -0.22189E-02   -0.22189E-02  1216   0.170E-02 0.181E-05
 gam= 0.272 trial= 0.660  step= 0.495 mean= 0.660
 gam= 0.157 g(H,U,f)=  0.259E-03 0.807E-05 0.197E-19 ort(H,U,f) =-0.351E-05 0.217E-05-0.528E-19
CGA:   3    -0.296514206551E+03   -0.42188E-03   -0.42178E-03  1216   0.268E-03-0.134E-05
 gam= 0.157 trial= 0.652  step= 0.515 mean= 0.652
 gam= 0.169 g(H,U,f)=  0.421E-04 0.302E-05 0.400E-20 ort(H,U,f) =-0.486E-05 0.475E-05 0.514E-20
CGA:   4    -0.296514275390E+03   -0.68839E-04   -0.68831E-04  1216   0.452E-04-0.111E-06
 gam= 0.169 trial= 0.645  step= 0.594 mean= 0.645
 gam= 0.213 g(H,U,f)=  0.826E-05 0.133E-05 0.164E-21 ort(H,U,f) =-0.265E-05 0.246E-05 0.990E-21
CGA:   5    -0.296514288807E+03   -0.13417E-04   -0.13413E-04  1216   0.960E-05-0.192E-06
 gam= 0.213 trial= 0.642  step= 0.681 mean= 0.642
 gam= 0.289 g(H,U,f)=  0.240E-05 0.375E-06 0.106E-20 ort(H,U,f) =-0.105E-05 0.955E-06 0.958E-21
CGA:   6    -0.296514292061E+03   -0.32533E-05   -0.32554E-05  1216   0.277E-05-0.975E-07
 gam= 0.289 trial= 0.644  step= 0.768 mean= 0.644
 gam= 0.309 g(H,U,f)=  0.789E-06 0.687E-07 0.123E-21 ort(H,U,f) =-0.311E-06 0.262E-06 0.457E-21
CGA:   7    -0.296514293111E+03   -0.10503E-05   -0.10532E-05  1216   0.858E-06-0.496E-07
 gam= 0.309 trial= 0.651  step= 0.759 mean= 0.651
 gam= 0.251 g(H,U,f)=  0.210E-06 0.532E-08 0.102E-21 ort(H,U,f) =-0.646E-07 0.365E-07 0.242E-21
CGA:   8    -0.296514293429E+03   -0.31843E-06   -0.31982E-06  1216   0.215E-06-0.281E-07
 gam= 0.251 trial= 0.656  step= 0.733 mean= 0.656
 final diagonalization
  26 F= -.29651429E+03 E0= -.29651429E+03  d E =-.702308E-03
 ZBRENT: can't locate minimum, use default step
 trial-energy change:   -0.000702  1 .order   -0.000701   -0.000768   -0.000634
 step:   0.2977(harm=  0.4268)  dis= 0.00415  next Energy=  -296.515792 (dE=-0.220E-02)
 bond charge predicted
 wavefunctions rotated
       N       E                     dE             d eps       ncg     rms          ort
 gam= 0.000 g(H,U,f)=  0.560E-01 0.443E-03 0.757E-18 ort(H,U,f) = 0.000E+00 0.000E+00 0.000E+00
SDA:   1    -0.296491053546E+03    0.23240E-01    0.00000E+00  1216   0.564E-01 0.000E+00
 gam= 0.000 trial= 0.660  step= 0.707 mean= 0.660
 gam= 0.272 g(H,U,f)=  0.151E-01 0.239E-03 0.157E-17 ort(H,U,f) = 0.280E-03-0.278E-03-0.102E-17
CGA:   2    -0.296511000209E+03   -0.19947E-01   -0.19947E-01  1216   0.154E-01 0.224E-05
 gam= 0.272 trial= 0.662  step= 0.494 mean= 0.662
 gam= 0.157 g(H,U,f)=  0.234E-02 0.733E-04 0.193E-18 ort(H,U,f) =-0.236E-04 0.198E-04-0.497E-18
CGA:   3    -0.296514798442E+03   -0.37982E-02   -0.37981E-02  1216   0.241E-02-0.378E-05
 gam= 0.157 trial= 0.654  step= 0.515 mean= 0.654
 gam= 0.170 g(H,U,f)=  0.384E-03 0.272E-04 0.411E-19 ort(H,U,f) =-0.433E-04 0.430E-04 0.525E-19
CGA:   4    -0.296515419254E+03   -0.62081E-03   -0.62078E-03  1216   0.411E-03-0.359E-06
 gam= 0.170 trial= 0.647  step= 0.591 mean= 0.647
 gam= 0.209 g(H,U,f)=  0.738E-04 0.121E-04 0.249E-20 ort(H,U,f) =-0.229E-04 0.223E-04 0.124E-19
CGA:   5    -0.296515540701E+03   -0.12145E-03   -0.12143E-03  1216   0.858E-04-0.596E-06
 gam= 0.209 trial= 0.644  step= 0.677 mean= 0.644
 gam= 0.285 g(H,U,f)=  0.210E-04 0.348E-05 0.107E-19 ort(H,U,f) =-0.893E-05 0.870E-05 0.107E-19
CGA:   6    -0.296515569694E+03   -0.28992E-04   -0.28996E-04  1216   0.245E-04-0.232E-06
 gam= 0.285 trial= 0.646  step= 0.761 mean= 0.646
 gam= 0.304 g(H,U,f)=  0.678E-05 0.667E-06 0.148E-20 ort(H,U,f) =-0.257E-05 0.246E-05 0.514E-20
CGA:   7    -0.296515578972E+03   -0.92782E-05   -0.92845E-05  1216   0.745E-05-0.114E-06
 gam= 0.304 trial= 0.651  step= 0.750 mean= 0.651
 gam= 0.246 g(H,U,f)=  0.177E-05 0.613E-07 0.102E-20 ort(H,U,f) =-0.469E-06 0.391E-06 0.255E-20
CGA:   8    -0.296515581747E+03   -0.27750E-05   -0.27788E-05  1216   0.183E-05-0.780E-07
 gam= 0.246 trial= 0.656  step= 0.746 mean= 0.656
 final diagonalization
  27 F= -.29651558E+03 E0= -.29651558E+03  d E =-.199063E-02
 curvature:  -1.08 expect dE=-0.493E-02 dE for cont linesearch -0.166E-03
 ZBRENT: increasing intervall
 opt :   0.7443  next Energy=  -296.514495 (dE=-0.904E-03)
 bond charge predicted
 wavefunctions rotated
       N       E                     dE             d eps       ncg     rms          ort
 gam= 0.000 g(H,U,f)=  0.224E+00 0.178E-02 0.250E-17 ort(H,U,f) = 0.000E+00 0.000E+00 0.000E+00
SDA:   1    -0.296416340005E+03    0.99239E-01    0.00000E+00  1216   0.226E+00 0.000E+00
 gam= 0.000 trial= 0.661  step= 0.706 mean= 0.661
 gam= 0.273 g(H,U,f)=  0.607E-01 0.973E-03 0.511E-17 ort(H,U,f) = 0.110E-02-0.112E-02-0.319E-17
CGA:   2    -0.296496091944E+03   -0.79752E-01   -0.79753E-01  1216   0.617E-01-0.194E-04
 gam= 0.273 trial= 0.663  step= 0.494 mean= 0.663
 gam= 0.157 g(H,U,f)=  0.937E-02 0.298E-03 0.821E-18 ort(H,U,f) =-0.863E-04 0.805E-04-0.208E-17
CGA:   3    -0.296511332169E+03   -0.15240E-01   -0.15241E-01  1216   0.967E-02-0.579E-05
 gam= 0.157 trial= 0.655  step= 0.516 mean= 0.655
 gam= 0.170 g(H,U,f)=  0.154E-02 0.110E-03 0.164E-18 ort(H,U,f) =-0.175E-03 0.174E-03 0.216E-18
CGA:   4    -0.296513825898E+03   -0.24937E-02   -0.24936E-02  1216   0.165E-02-0.119E-05
 gam= 0.170 trial= 0.648  step= 0.591 mean= 0.648
 gam= 0.209 g(H,U,f)=  0.296E-03 0.487E-04 0.120E-19 ort(H,U,f) =-0.912E-04 0.900E-04 0.554E-19
CGA:   5    -0.296514312502E+03   -0.48660E-03   -0.48657E-03  1216   0.345E-03-0.123E-05
 gam= 0.209 trial= 0.645  step= 0.676 mean= 0.645
 gam= 0.286 g(H,U,f)=  0.844E-04 0.141E-04 0.467E-19 ort(H,U,f) =-0.355E-04 0.352E-04 0.474E-19
CGA:   6    -0.296514429002E+03   -0.11650E-03   -0.11650E-03  1216   0.985E-04-0.298E-06
 gam= 0.286 trial= 0.646  step= 0.760 mean= 0.646
 gam= 0.303 g(H,U,f)=  0.272E-04 0.271E-05 0.680E-20 ort(H,U,f) =-0.101E-04 0.996E-05 0.231E-19
CGA:   7    -0.296514466382E+03   -0.37380E-04   -0.37388E-04  1216   0.299E-04-0.132E-06
 gam= 0.303 trial= 0.652  step= 0.748 mean= 0.652
 gam= 0.244 g(H,U,f)=  0.705E-05 0.254E-06 0.433E-20 ort(H,U,f) =-0.175E-05 0.161E-05 0.112E-19
CGA:   8    -0.296514477535E+03   -0.11153E-04   -0.11160E-04  1216   0.731E-05-0.140E-06
 gam= 0.244 trial= 0.657  step= 0.748 mean= 0.657
 gam= 0.218 g(H,U,f)=  0.157E-05 0.211E-07 0.533E-21 ort(H,U,f) =-0.749E-07 0.692E-07 0.249E-20
CGA:   9    -0.296514480256E+03   -0.27211E-05   -0.27212E-05  1216   0.159E-05-0.570E-08
 gam= 0.218 trial= 0.661  step= 0.772 mean= 0.661
 final diagonalization
  28 F= -.29651448E+03 E0= -.29651448E+03  d E =-.889135E-03
 curvature:   7.09 expect dE= 0.165E+00 dE for cont linesearch  0.745E-02
 ZBRENT: bracketing found
 ZBRENT: interpolating
 opt :   0.4212  next Energy=  -296.515769 (dE=-0.218E-02)
 bond charge predicted
 wavefunctions rotated
       N       E                     dE             d eps       ncg     rms          ort
 gam= 0.000 g(H,U,f)=  0.117E+00 0.927E-03 0.277E-17 ort(H,U,f) = 0.000E+00 0.000E+00 0.000E+00
SDA:   1    -0.296464328412E+03    0.50149E-01    0.00000E+00  1216   0.118E+00 0.000E+00
 gam= 0.000 trial= 0.667  step= 0.707 mean= 0.667
 gam= 0.272 g(H,U,f)=  0.316E-01 0.500E-03 0.561E-17 ort(H,U,f) = 0.581E-03-0.579E-03-0.433E-17
CGA:   2    -0.296506182447E+03   -0.41854E-01   -0.41854E-01  1216   0.321E-01 0.146E-05
 gam= 0.272 trial= 0.669  step= 0.495 mean= 0.669
 gam= 0.157 g(H,U,f)=  0.490E-02 0.150E-03 0.293E-18 ort(H,U,f) =-0.313E-04 0.371E-04-0.907E-18
CGA:   3    -0.296514131206E+03   -0.79488E-02   -0.79489E-02  1216   0.505E-02 0.585E-05
 gam= 0.157 trial= 0.660  step= 0.514 mean= 0.660
 gam= 0.170 g(H,U,f)=  0.803E-03 0.566E-04 0.831E-19 ort(H,U,f) =-0.876E-04 0.881E-04 0.822E-19
CGA:   4    -0.296515429645E+03   -0.12984E-02   -0.12985E-02  1216   0.860E-03 0.516E-06
 gam= 0.170 trial= 0.653  step= 0.590 mean= 0.653
 gam= 0.206 g(H,U,f)=  0.152E-03 0.249E-04 0.170E-20 ort(H,U,f) =-0.452E-04 0.460E-04 0.139E-19
CGA:   5    -0.296515683080E+03   -0.25343E-03   -0.25346E-03  1216   0.177E-03 0.842E-06
 gam= 0.206 trial= 0.650  step= 0.673 mean= 0.650
 gam= 0.281 g(H,U,f)=  0.424E-04 0.734E-05 0.176E-19 ort(H,U,f) =-0.176E-04 0.181E-04 0.147E-19
CGA:   6    -0.296515742685E+03   -0.59605E-04   -0.59599E-04  1216   0.497E-04 0.515E-06
 gam= 0.281 trial= 0.651  step= 0.755 mean= 0.651
 gam= 0.301 g(H,U,f)=  0.135E-04 0.147E-05 0.265E-20 ort(H,U,f) =-0.499E-05 0.526E-05 0.852E-20
CGA:   7    -0.296515761539E+03   -0.18854E-04   -0.18840E-04  1216   0.150E-04 0.278E-06
 gam= 0.301 trial= 0.656  step= 0.740 mean= 0.656
 gam= 0.242 g(H,U,f)=  0.347E-05 0.152E-06 0.212E-20 ort(H,U,f) =-0.764E-06 0.915E-06 0.469E-20
CGA:   8    -0.296515767118E+03   -0.55787E-05   -0.55722E-05  1216   0.362E-05 0.151E-06
 gam= 0.242 trial= 0.660  step= 0.752 mean= 0.660
 gam= 0.222 g(H,U,f)=  0.791E-06 0.120E-07 0.294E-21 ort(H,U,f) =-0.435E-07 0.580E-07 0.122E-20
CGA:   9    -0.296515768494E+03   -0.13760E-05   -0.13753E-05  1216   0.803E-06 0.144E-07
 gam= 0.222 trial= 0.665  step= 0.776 mean= 0.665
 final diagonalization
  29 F= -.29651577E+03 E0= -.29651577E+03  d E =-.217737E-02
 curvature:  -0.18 expect dE=-0.115E-02 dE for cont linesearch -0.509E-10
 trial: gam= 0.52522 g(F)=  0.646E-02 g(S)=  0.000E+00 ort =-0.415E-05 (trialstep = 0.144E+00)
 search vector abs. value=  0.231E-01
 bond charge predicted
 wavefunctions rotated
       N       E                     dE             d eps       ncg     rms          ort
 gam= 0.000 g(H,U,f)=  0.107E-01 0.918E-04 0.311E-18 ort(H,U,f) = 0.000E+00 0.000E+00 0.000E+00
SDA:   1    -0.296511983509E+03    0.37836E-02    0.00000E+00  1216   0.108E-01 0.000E+00
 gam= 0.000 trial= 0.670  step= 0.706 mean= 0.670
 gam= 0.269 g(H,U,f)=  0.284E-02 0.506E-04 0.611E-18 ort(H,U,f) = 0.578E-04-0.589E-04-0.471E-18
CGA:   2    -0.296515777793E+03   -0.37943E-02   -0.37943E-02  1216   0.289E-02-0.105E-05
 gam= 0.269 trial= 0.672  step= 0.498 mean= 0.672
 gam= 0.152 g(H,U,f)=  0.426E-03 0.132E-04 0.887E-21 ort(H,U,f) =-0.684E-05 0.861E-05-0.168E-19
CGA:   3    -0.296516497285E+03   -0.71949E-03   -0.71962E-03  1216   0.439E-03 0.176E-05
 gam= 0.152 trial= 0.664  step= 0.512 mean= 0.664
 gam= 0.177 g(H,U,f)=  0.724E-04 0.535E-05 0.254E-19 ort(H,U,f) =-0.825E-05 0.853E-05 0.895E-20
CGA:   4    -0.296516609768E+03   -0.11248E-03   -0.11250E-03  1216   0.777E-04 0.282E-06
 gam= 0.177 trial= 0.656  step= 0.580 mean= 0.656
 gam= 0.202 g(H,U,f)=  0.132E-04 0.249E-05 0.142E-19 ort(H,U,f) =-0.431E-05 0.456E-05 0.199E-19
CGA:   5    -0.296516632329E+03   -0.22562E-04   -0.22571E-04  1216   0.157E-04 0.248E-06
 gam= 0.202 trial= 0.652  step= 0.688 mean= 0.652
 gam= 0.290 g(H,U,f)=  0.384E-05 0.716E-06 0.113E-21 ort(H,U,f) =-0.200E-05 0.179E-05 0.160E-20
CGA:   6    -0.296516637751E+03   -0.54220E-05   -0.54257E-05  1216   0.456E-05-0.208E-06
 gam= 0.290 trial= 0.654  step= 0.753 mean= 0.654
 gam= 0.295 g(H,U,f)=  0.121E-05 0.131E-06 0.225E-21 ort(H,U,f) =-0.533E-06 0.511E-06 0.815E-21
CGA:   7    -0.296516639444E+03   -0.16927E-05   -0.16937E-05  1216   0.135E-05-0.221E-07
 gam= 0.295 trial= 0.659  step= 0.719 mean= 0.659
 gam= 0.226 g(H,U,f)=  0.288E-06 0.169E-07 0.396E-22 ort(H,U,f) =-0.572E-07 0.946E-07 0.195E-21
CGA:   8    -0.296516639926E+03   -0.48216E-06   -0.48144E-06  1216   0.304E-06 0.374E-07
 gam= 0.226 trial= 0.662  step= 0.773 mean= 0.662
 final diagonalization
  30 F= -.29651664E+03 E0= -.29651664E+03  d E =-.871432E-03
 ZBRENT: can't locate minimum, use default step
 trial-energy change:   -0.000871  1 .order   -0.000871   -0.000929   -0.000814
 step:   0.5751(harm=  1.1597)  dis= 0.00468  next Energy=  -296.519514 (dE=-0.375E-02)
 bond charge predicted
 wavefunctions rotated
       N       E                     dE             d eps       ncg     rms          ort
 gam= 0.000 g(H,U,f)=  0.959E-01 0.811E-03 0.143E-17 ort(H,U,f) = 0.000E+00 0.000E+00 0.000E+00
SDA:   1    -0.296476677819E+03    0.39962E-01    0.00000E+00  1216   0.967E-01 0.000E+00
 gam= 0.000 trial= 0.668  step= 0.706 mean= 0.668
 gam= 0.269 g(H,U,f)=  0.255E-01 0.459E-03 0.356E-17 ort(H,U,f) = 0.547E-03-0.530E-03-0.286E-17
CGA:   2    -0.296510803449E+03   -0.34126E-01   -0.34125E-01  1216   0.260E-01 0.167E-04
 gam= 0.269 trial= 0.669  step= 0.498 mean= 0.669
 gam= 0.152 g(H,U,f)=  0.382E-02 0.121E-03 0.681E-21 ort(H,U,f) =-0.770E-04 0.808E-04-0.291E-19
CGA:   3    -0.296517273919E+03   -0.64705E-02   -0.64702E-02  1216   0.395E-02 0.375E-05
 gam= 0.152 trial= 0.661  step= 0.513 mean= 0.661
 gam= 0.178 g(H,U,f)=  0.652E-03 0.491E-04 0.116E-18 ort(H,U,f) =-0.778E-04 0.786E-04 0.494E-19
CGA:   4    -0.296518285338E+03   -0.10114E-02   -0.10115E-02  1216   0.702E-03 0.798E-06
 gam= 0.178 trial= 0.653  step= 0.581 mean= 0.653
 gam= 0.204 g(H,U,f)=  0.120E-03 0.229E-04 0.610E-19 ort(H,U,f) =-0.413E-04 0.420E-04 0.868E-19
CGA:   5    -0.296518488996E+03   -0.20366E-03   -0.20368E-03  1216   0.143E-03 0.719E-06
 gam= 0.204 trial= 0.650  step= 0.685 mean= 0.650
 gam= 0.287 g(H,U,f)=  0.345E-04 0.664E-05 0.820E-21 ort(H,U,f) =-0.171E-04 0.166E-04 0.871E-20
CGA:   6    -0.296518538079E+03   -0.49083E-04   -0.49093E-04  1216   0.412E-04-0.552E-06
 gam= 0.287 trial= 0.652  step= 0.757 mean= 0.652
 gam= 0.299 g(H,U,f)=  0.111E-04 0.121E-05 0.101E-20 ort(H,U,f) =-0.474E-05 0.471E-05 0.365E-20
CGA:   7    -0.296518553595E+03   -0.15516E-04   -0.15517E-04  1216   0.123E-04-0.295E-07
 gam= 0.299 trial= 0.657  step= 0.735 mean= 0.657
 gam= 0.234 g(H,U,f)=  0.274E-05 0.145E-06 0.154E-21 ort(H,U,f) =-0.709E-06 0.840E-06 0.811E-21
CGA:   8    -0.296518558127E+03   -0.45317E-05   -0.45268E-05  1216   0.288E-05 0.131E-06
 gam= 0.234 trial= 0.661  step= 0.759 mean= 0.661
[...]
 gam= 0.306 g(H,U,f)=  0.412E-06 0.594E-07 0.266E-29 ort(H,U,f) =-0.166E-06 0.145E-06 0.501E-29
CGA:   6    -0.296764698086E+03   -0.54969E-06   -0.55029E-06  1216   0.471E-06-0.210E-07
 gam= 0.306 trial= 0.641  step= 0.801 mean= 0.641
 gam= 0.338 g(H,U,f)=  0.151E-06 0.774E-08 0.126E-28 ort(H,U,f) =-0.613E-07 0.344E-07-0.915E-29
CGA:   7    -0.296764698270E+03   -0.18417E-06   -0.18627E-06  1216   0.159E-06-0.270E-07
 gam= 0.338 trial= 0.649  step= 0.718 mean= 0.649
 gam= 0.223 g(H,U,f)=  0.347E-07 0.877E-09 0.162E-28 ort(H,U,f) =-0.419E-08 0.522E-08-0.107E-28
CGA:   8    -0.296764698324E+03   -0.53833E-07   -0.53918E-07  1216   0.356E-07 0.103E-08
 gam= 0.223 trial= 0.652  step= 0.612 mean= 0.652
 final diagonalization
 372 F= -.29676470E+03 E0= -.29676470E+03  d E =-.143913E-04
 trial-energy change:   -0.000014  1 .order   -0.000014   -0.000017   -0.000012
 step:   0.4050(harm=  0.4050)  dis= 0.00233  next Energy=  -296.764710 (dE=-0.258E-04)
 bond charge predicted
 wavefunctions rotated
       N       E                     dE             d eps       ncg     rms          ort
 gam= 0.000 g(H,U,f)=  0.392E-02 0.276E-04 0.118E-23 ort(H,U,f) = 0.000E+00 0.000E+00 0.000E+00
SDA:   1    -0.296762987643E+03    0.17106E-02    0.00000E+00  1216   0.395E-02 0.000E+00
 gam= 0.000 trial= 0.650  step= 0.712 mean= 0.650
 gam= 0.259 g(H,U,f)=  0.101E-02 0.169E-04 0.112E-24 ort(H,U,f) = 0.182E-04-0.184E-04-0.372E-24
CGA:   2    -0.296764393010E+03   -0.14054E-02   -0.14054E-02  1216   0.102E-02-0.192E-06
 gam= 0.259 trial= 0.653  step= 0.515 mean= 0.653
 gam= 0.158 g(H,U,f)=  0.157E-03 0.446E-05 0.102E-28 ort(H,U,f) =-0.317E-05 0.256E-05-0.139E-27
CGA:   3    -0.296764656489E+03   -0.26348E-03   -0.26344E-03  1216   0.162E-03-0.608E-06
 gam= 0.158 trial= 0.646  step= 0.513 mean= 0.646
 gam= 0.182 g(H,U,f)=  0.279E-04 0.157E-05 0.392E-28 ort(H,U,f) =-0.280E-05 0.275E-05-0.256E-28
CGA:   4    -0.296764697959E+03   -0.41470E-04   -0.41467E-04  1216   0.294E-04-0.463E-07
 gam= 0.182 trial= 0.640  step= 0.577 mean= 0.640
 gam= 0.204 g(H,U,f)=  0.523E-05 0.783E-06 0.144E-28 ort(H,U,f) =-0.121E-05 0.138E-05 0.196E-28
CGA:   5    -0.296764706445E+03   -0.84857E-05   -0.84909E-05  1216   0.601E-05 0.166E-06
 gam= 0.204 trial= 0.637  step= 0.698 mean= 0.637
 gam= 0.298 g(H,U,f)=  0.156E-05 0.232E-06 0.258E-29 ort(H,U,f) =-0.603E-06 0.563E-06 0.712E-29
CGA:   6    -0.296764708551E+03   -0.21064E-05   -0.21079E-05  1216   0.179E-05-0.396E-07
 gam= 0.298 trial= 0.640  step= 0.783 mean= 0.640
 gam= 0.324 g(H,U,f)=  0.545E-06 0.339E-07 0.405E-28 ort(H,U,f) =-0.193E-06 0.142E-06-0.190E-28
CGA:   7    -0.296764709243E+03   -0.69165E-06   -0.69524E-06  1216   0.579E-06-0.510E-07
 gam= 0.324 trial= 0.647  step= 0.734 mean= 0.647
 gam= 0.233 g(H,U,f)=  0.130E-06 0.447E-08 0.497E-28 ort(H,U,f) =-0.215E-07 0.244E-07-0.378E-28
CGA:   8    -0.296764709449E+03   -0.20660E-06   -0.20640E-06  1216   0.135E-06 0.291E-08
 gam= 0.233 trial= 0.651  step= 0.678 mean= 0.651
 final diagonalization
 373 F= -.29676471E+03 E0= -.29676471E+03  d E =-.255171E-04
 curvature:  -6.44 expect dE=-0.592E-03 dE for cont linesearch -0.268E-10
 trial: gam= 0.71149 g(F)=  0.920E-04 g(S)=  0.000E+00 ort = 0.130E-06 (trialstep = 0.190E+00)
 search vector abs. value=  0.214E-02
 bond charge predicted
 wavefunctions rotated
       N       E                     dE             d eps       ncg     rms          ort
 gam= 0.000 g(H,U,f)=  0.109E-02 0.722E-05 0.440E-24 ort(H,U,f) = 0.000E+00 0.000E+00 0.000E+00
SDA:   1    -0.296764242704E+03    0.46654E-03    0.00000E+00  1216   0.109E-02 0.000E+00
 gam= 0.000 trial= 0.652  step= 0.721 mean= 0.652
 gam= 0.258 g(H,U,f)=  0.278E-03 0.419E-05 0.110E-24 ort(H,U,f) = 0.426E-05-0.474E-05-0.221E-24
CGA:   2    -0.296764636615E+03   -0.39391E-03   -0.39393E-03  1216   0.282E-03-0.476E-06
 gam= 0.258 trial= 0.656  step= 0.514 mean= 0.656
 gam= 0.156 g(H,U,f)=  0.431E-04 0.974E-06 0.742E-27 ort(H,U,f) =-0.842E-06 0.658E-06 0.435E-26
CGA:   3    -0.296764708981E+03   -0.72366E-04   -0.72353E-04  1216   0.441E-04-0.184E-06
 gam= 0.156 trial= 0.649  step= 0.513 mean= 0.649
 gam= 0.178 g(H,U,f)=  0.746E-05 0.398E-06 0.197E-27 ort(H,U,f) =-0.672E-06 0.661E-06 0.734E-27
CGA:   4    -0.296764720270E+03   -0.11288E-04   -0.11288E-04  1216   0.786E-05-0.115E-07
 gam= 0.178 trial= 0.642  step= 0.572 mean= 0.642
 gam= 0.200 g(H,U,f)=  0.138E-05 0.197E-06 0.474E-27 ort(H,U,f) =-0.279E-06 0.341E-06 0.510E-27
CGA:   5    -0.296764722515E+03   -0.22450E-05   -0.22470E-05  1216   0.157E-05 0.615E-07
 gam= 0.200 trial= 0.638  step= 0.697 mean= 0.638
 gam= 0.297 g(H,U,f)=  0.411E-06 0.564E-07 0.702E-28 ort(H,U,f) =-0.165E-06 0.138E-06 0.222E-27
CGA:   6    -0.296764723066E+03   -0.55152E-06   -0.55242E-06  1216   0.467E-06-0.267E-07
 gam= 0.297 trial= 0.641  step= 0.788 mean= 0.641
 gam= 0.328 g(H,U,f)=  0.144E-06 0.942E-08 0.126E-28 ort(H,U,f) =-0.577E-07 0.377E-07 0.576E-28
CGA:   7    -0.296764723245E+03   -0.17922E-06   -0.18083E-06  1216   0.153E-06-0.200E-07
 gam= 0.328 trial= 0.649  step= 0.713 mean= 0.649
 gam= 0.225 g(H,U,f)=  0.334E-07 0.112E-08 0.108E-28 ort(H,U,f) =-0.168E-08 0.662E-08-0.293E-28
CGA:   8    -0.296764723298E+03   -0.52602E-07   -0.52297E-07  1216   0.345E-07 0.494E-08
 gam= 0.225 trial= 0.652  step= 0.631 mean= 0.652
 final diagonalization
 374 F= -.29676472E+03 E0= -.29676472E+03  d E =-.138487E-04
 trial-energy change:   -0.000014  1 .order   -0.000014   -0.000018   -0.000010
 step:   0.4523(harm=  0.4523)  dis= 0.00178  next Energy=  -296.764730 (dE=-0.208E-04)
 bond charge predicted
 wavefunctions rotated
       N       E                     dE             d eps       ncg     rms          ort
 gam= 0.000 g(H,U,f)=  0.206E-02 0.138E-04 0.783E-24 ort(H,U,f) = 0.000E+00 0.000E+00 0.000E+00
SDA:   1    -0.296763816762E+03    0.90648E-03    0.00000E+00  1216   0.208E-02 0.000E+00
 gam= 0.000 trial= 0.651  step= 0.721 mean= 0.651
 gam= 0.258 g(H,U,f)=  0.527E-03 0.796E-05 0.191E-24 ort(H,U,f) = 0.839E-05-0.903E-05-0.388E-24
CGA:   2    -0.296764565476E+03   -0.74871E-03   -0.74874E-03  1216   0.535E-03-0.643E-06
 gam= 0.258 trial= 0.654  step= 0.514 mean= 0.654
 gam= 0.156 g(H,U,f)=  0.819E-04 0.184E-05 0.141E-26 ort(H,U,f) =-0.149E-05 0.124E-05 0.777E-26
CGA:   3    -0.296764702978E+03   -0.13750E-03   -0.13748E-03  1216   0.838E-04-0.254E-06
 gam= 0.156 trial= 0.647  step= 0.512 mean= 0.647
 gam= 0.179 g(H,U,f)=  0.143E-04 0.754E-06 0.352E-27 ort(H,U,f) =-0.127E-05 0.125E-05 0.132E-26
CGA:   4    -0.296764724422E+03   -0.21444E-04   -0.21443E-04  1216   0.150E-04-0.177E-07
 gam= 0.179 trial= 0.641  step= 0.572 mean= 0.641
 gam= 0.199 g(H,U,f)=  0.262E-05 0.373E-06 0.849E-27 ort(H,U,f) =-0.559E-06 0.644E-06 0.916E-27
CGA:   5    -0.296764728712E+03   -0.42901E-05   -0.42932E-05  1216   0.299E-05 0.852E-07
 gam= 0.199 trial= 0.637  step= 0.692 mean= 0.637
 gam= 0.292 g(H,U,f)=  0.765E-06 0.108E-06 0.136E-27 ort(H,U,f) =-0.299E-06 0.262E-06 0.415E-27
CGA:   6    -0.296764729752E+03   -0.10398E-05   -0.10408E-05  1216   0.873E-06-0.370E-07
 gam= 0.292 trial= 0.640  step= 0.780 mean= 0.640
 gam= 0.322 g(H,U,f)=  0.262E-06 0.190E-07 0.255E-28 ort(H,U,f) =-0.998E-07 0.735E-07 0.111E-27
CGA:   7    -0.296764730086E+03   -0.33425E-06   -0.33611E-06  1216   0.281E-06-0.263E-07
 gam= 0.322 trial= 0.647  step= 0.724 mean= 0.647
 gam= 0.231 g(H,U,f)=  0.625E-07 0.239E-08 0.168E-28 ort(H,U,f) =-0.609E-08 0.134E-07-0.499E-28
CGA:   8    -0.296764730185E+03   -0.98977E-07   -0.98663E-07  1216   0.649E-07 0.735E-08
 gam= 0.231 trial= 0.651  step= 0.665 mean= 0.651
 final diagonalization
 375 F= -.29676473E+03 E0= -.29676473E+03  d E =-.207357E-04
 curvature:  -5.25 expect dE=-0.524E-03 dE for cont linesearch -0.120E-09
 trial: gam= 1.09116 g(F)=  0.998E-04 g(S)=  0.000E+00 ort =-0.221E-06 (trialstep = 0.196E+00)
 search vector abs. value=  0.265E-02
 bond charge predicted
 wavefunctions rotated
       N       E                     dE             d eps       ncg     rms          ort
 gam= 0.000 g(H,U,f)=  0.120E-02 0.950E-05 0.109E-23 ort(H,U,f) = 0.000E+00 0.000E+00 0.000E+00
SDA:   1    -0.296764214381E+03    0.51571E-03    0.00000E+00  1216   0.121E-02 0.000E+00
 gam= 0.000 trial= 0.652  step= 0.715 mean= 0.652
 gam= 0.265 g(H,U,f)=  0.314E-03 0.633E-05 0.957E-24 ort(H,U,f) = 0.588E-05-0.675E-05-0.104E-23
CGA:   2    -0.296764646064E+03   -0.43168E-03   -0.43171E-03  1216   0.320E-03-0.877E-06
 gam= 0.265 trial= 0.655  step= 0.508 mean= 0.655
 gam= 0.157 g(H,U,f)=  0.493E-04 0.106E-05 0.687E-26 ort(H,U,f) =-0.643E-06 0.781E-06 0.569E-25
CGA:   3    -0.296764727416E+03   -0.81352E-04   -0.81361E-04  1216   0.503E-04 0.138E-06
 gam= 0.157 trial= 0.647  step= 0.512 mean= 0.647
 gam= 0.183 g(H,U,f)=  0.874E-05 0.472E-06 0.719E-26 ort(H,U,f) =-0.725E-06 0.721E-06 0.162E-25
CGA:   4    -0.296764740319E+03   -0.12903E-04   -0.12903E-04  1216   0.921E-05-0.451E-08
 gam= 0.183 trial= 0.641  step= 0.570 mean= 0.641
 gam= 0.203 g(H,U,f)=  0.164E-05 0.229E-06 0.888E-26 ort(H,U,f) =-0.302E-06 0.394E-06 0.113E-25
CGA:   5    -0.296764742941E+03   -0.26217E-05   -0.26249E-05  1216   0.187E-05 0.916E-07
 gam= 0.203 trial= 0.637  step= 0.710 mean= 0.637
 gam= 0.313 g(H,U,f)=  0.529E-06 0.580E-07 0.601E-27 ort(H,U,f) =-0.210E-06 0.149E-06 0.291E-26
CGA:   6    -0.296764743610E+03   -0.66925E-06   -0.67150E-06  1216   0.587E-06-0.607E-07
 gam= 0.313 trial= 0.641  step= 0.770 mean= 0.641
 gam= 0.319 g(H,U,f)=  0.176E-06 0.114E-07 0.634E-28 ort(H,U,f) =-0.694E-07 0.417E-07 0.491E-27
CGA:   7    -0.296764743828E+03   -0.21707E-06   -0.21867E-06  1216   0.187E-06-0.277E-07
 gam= 0.319 trial= 0.647  step= 0.672 mean= 0.647
 gam= 0.214 g(H,U,f)=  0.389E-07 0.111E-08 0.208E-28 ort(H,U,f) = 0.693E-08 0.686E-08-0.126E-27
CGA:   8    -0.296764743888E+03   -0.60141E-07   -0.59874E-07  1216   0.401E-07 0.138E-07
 gam= 0.214 trial= 0.648  step= 0.639 mean= 0.648
 final diagonalization
 376 F= -.29676474E+03 E0= -.29676474E+03  d E =-.137025E-04
 trial-energy change:   -0.000014  1 .order   -0.000014   -0.000020   -0.000008
 step:   0.3317(harm=  0.3317)  dis= 0.00157  next Energy=  -296.764747 (dE=-0.165E-04)
 bond charge predicted
 wavefunctions rotated
       N       E                     dE             d eps       ncg     rms          ort
 gam= 0.000 g(H,U,f)=  0.572E-03 0.455E-05 0.542E-24 ort(H,U,f) = 0.000E+00 0.000E+00 0.000E+00
SDA:   1    -0.296764493231E+03    0.25060E-03    0.00000E+00  1216   0.577E-03 0.000E+00
 gam= 0.000 trial= 0.648  step= 0.716 mean= 0.648
 gam= 0.266 g(H,U,f)=  0.150E-03 0.303E-05 0.476E-24 ort(H,U,f) = 0.262E-05-0.324E-05-0.513E-24
CGA:   2    -0.296764699664E+03   -0.20643E-03   -0.20645E-03  1216   0.153E-03-0.620E-06
 gam= 0.266 trial= 0.651  step= 0.508 mean= 0.651
 gam= 0.157 g(H,U,f)=  0.236E-04 0.509E-06 0.341E-26 ort(H,U,f) =-0.276E-06 0.374E-06 0.284E-25
CGA:   3    -0.296764738539E+03   -0.38875E-04   -0.38882E-04  1216   0.241E-04 0.990E-07
 gam= 0.157 trial= 0.644  step= 0.513 mean= 0.644
 gam= 0.183 g(H,U,f)=  0.417E-05 0.226E-06 0.357E-26 ort(H,U,f) =-0.347E-06 0.345E-06 0.805E-26
CGA:   4    -0.296764744712E+03   -0.61734E-05   -0.61732E-05  1216   0.440E-05-0.151E-08
 gam= 0.183 trial= 0.638  step= 0.568 mean= 0.638
 gam= 0.202 g(H,U,f)=  0.780E-06 0.110E-06 0.443E-26 ort(H,U,f) =-0.125E-06 0.189E-06 0.562E-26
CGA:   5    -0.296764745960E+03   -0.12480E-05   -0.12502E-05  1216   0.890E-06 0.638E-07
 gam= 0.202 trial= 0.634  step= 0.723 mean= 0.634
 gam= 0.326 g(H,U,f)=  0.263E-06 0.271E-07 0.271E-27 ort(H,U,f) =-0.112E-06 0.702E-07 0.138E-26
CGA:   6    -0.296764746285E+03   -0.32442E-06   -0.32643E-06  1216   0.290E-06-0.422E-07
 gam= 0.326 trial= 0.639  step= 0.782 mean= 0.639
 gam= 0.327 g(H,U,f)=  0.899E-07 0.490E-08 0.261E-28 ort(H,U,f) =-0.398E-07 0.188E-07 0.223E-27
CGA:   7    -0.296764746391E+03   -0.10647E-06   -0.10806E-06  1216   0.948E-07-0.210E-07
 gam= 0.327 trial= 0.646  step= 0.638 mean= 0.646
 gam= 0.206 g(H,U,f)=  0.191E-07 0.438E-09 0.137E-28 ort(H,U,f) = 0.655E-08 0.295E-08-0.717E-28
CGA:   8    -0.296764746419E+03   -0.27836E-07   -0.28047E-07  1216   0.196E-07 0.949E-08
 gam= 0.206 trial= 0.645  step= 0.593 mean= 0.645
 final diagonalization
 377 F= -.29676475E+03 E0= -.29676475E+03  d E =-.162337E-04
 curvature:  -4.41 expect dE=-0.241E-03 dE for cont linesearch -0.228E-09
 trial: gam= 0.54671 g(F)=  0.547E-04 g(S)=  0.000E+00 ort =-0.370E-06 (trialstep = 0.223E+00)
 search vector abs. value=  0.845E-03
 bond charge predicted
 wavefunctions rotated
       N       E                     dE             d eps       ncg     rms          ort
 gam= 0.000 g(H,U,f)=  0.461E-03 0.356E-05 0.152E-24 ort(H,U,f) = 0.000E+00 0.000E+00 0.000E+00
SDA:   1    -0.296764551993E+03    0.19440E-03    0.00000E+00  1216   0.464E-03 0.000E+00
 gam= 0.000 trial= 0.643  step= 0.715 mean= 0.643
 gam= 0.259 g(H,U,f)=  0.118E-03 0.244E-05 0.253E-25 ort(H,U,f) = 0.275E-05-0.259E-05-0.627E-25
CGA:   2    -0.296764717938E+03   -0.16594E-03   -0.16594E-03  1216   0.120E-03 0.165E-06
 gam= 0.259 trial= 0.646  step= 0.514 mean= 0.646
 gam= 0.160 g(H,U,f)=  0.189E-04 0.437E-06 0.491E-26 ort(H,U,f) =-0.601E-06 0.358E-06 0.394E-26
CGA:   3    -0.296764748929E+03   -0.30991E-04   -0.30975E-04  1216   0.193E-04-0.243E-06
 gam= 0.160 trial= 0.640  step= 0.513 mean= 0.640
 gam= 0.187 g(H,U,f)=  0.340E-05 0.209E-06 0.133E-31 ort(H,U,f) =-0.325E-06 0.324E-06 0.106E-29
CGA:   4    -0.296764753873E+03   -0.49440E-05   -0.49442E-05  1216   0.360E-05-0.650E-09
 gam= 0.187 trial= 0.633  step= 0.580 mean= 0.633
 gam= 0.212 g(H,U,f)=  0.668E-06 0.957E-07 0.576E-28 ort(H,U,f) =-0.131E-06 0.172E-06 0.112E-27
CGA:   5    -0.296764754918E+03   -0.10443E-05   -0.10453E-05  1216   0.764E-06 0.406E-07
 gam= 0.212 trial= 0.631  step= 0.731 mean= 0.631
 gam= 0.327 g(H,U,f)=  0.228E-06 0.219E-07 0.881E-28 ort(H,U,f) =-0.838E-07 0.602E-07 0.100E-27
CGA:   6    -0.296764755198E+03   -0.28087E-06   -0.28223E-06  1216   0.250E-06-0.235E-07
 gam= 0.327 trial= 0.636  step= 0.807 mean= 0.636
 gam= 0.344 g(H,U,f)=  0.829E-07 0.309E-08 0.414E-29 ort(H,U,f) =-0.364E-07 0.138E-07-0.261E-28
CGA:   7    -0.296764755294E+03   -0.95811E-07   -0.97871E-07  1216   0.860E-07-0.225E-07
 gam= 0.344 trial= 0.644  step= 0.680 mean= 0.644
 gam= 0.207 g(H,U,f)=  0.177E-07 0.162E-09 0.893E-29 ort(H,U,f) = 0.959E-09 0.882E-09-0.721E-29
CGA:   8    -0.296764755321E+03   -0.26626E-07   -0.26625E-07  1216   0.178E-07 0.184E-08
 gam= 0.207 trial= 0.646  step= 0.617 mean= 0.646
 final diagonalization
 378 F= -.29676476E+03 E0= -.29676476E+03  d E =-.890204E-05
 trial-energy change:   -0.000009  1 .order   -0.000009   -0.000012   -0.000006
 step:   0.4298(harm=  0.4298)  dis= 0.00124  next Energy=  -296.764758 (dE=-0.117E-04)
 reached required accuracy - stopping structural energy minimisation
Note: The following floating-point exceptions are signalling: IEEE_INVALID_FLAG
Note: The following floating-point exceptions are signalling: IEEE_INVALID_FLAG
Note: The following floating-point exceptions are signalling: IEEE_INVALID_FLAG
Note: The following floating-point exceptions are signalling: IEEE_INVALID_FLAG
Note: The following floating-point exceptions are signalling: IEEE_INVALID_FLAG IEEE_DIVIDE_BY_ZERO
Note: The following floating-point exceptions are signalling: IEEE_INVALID_FLAG
Note: The following floating-point exceptions are signalling: IEEE_INVALID_FLAG
Note: The following floating-point exceptions are signalling: IEEE_INVALID_FLAG
Note: The following floating-point exceptions are signalling: IEEE_INVALID_FLAG
Note: The following floating-point exceptions are signalling: IEEE_INVALID_FLAG
Note: The following floating-point exceptions are signalling: IEEE_INVALID_FLAG
Note: The following floating-point exceptions are signalling: IEEE_INVALID_FLAG
Note: The following floating-point exceptions are signalling: IEEE_INVALID_FLAG
Note: The following floating-point exceptions are signalling: IEEE_INVALID_FLAG
Note: The following floating-point exceptions are signalling: IEEE_INVALID_FLAG
Note: The following floating-point exceptions are signalling: IEEE_INVALID_FLAG
Note: The following floating-point exceptions are signalling: IEEE_INVALID_FLAG
Note: The following floating-point exceptions are signalling: IEEE_INVALID_FLAG
Note: The following floating-point exceptions are signalling: IEEE_INVALID_FLAG
Note: The following floating-point exceptions are signalling: IEEE_INVALID_FLAG
Note: The following floating-point exceptions are signalling: IEEE_INVALID_FLAG
Note: The following floating-point exceptions are signalling: IEEE_INVALID_FLAG
Note: The following floating-point exceptions are signalling: IEEE_INVALID_FLAG
Note: The following floating-point exceptions are signalling: IEEE_INVALID_FLAG
Note: The following floating-point exceptions are signalling: IEEE_INVALID_FLAG
Note: The following floating-point exceptions are signalling: IEEE_INVALID_FLAG
Note: The following floating-point exceptions are signalling: IEEE_INVALID_FLAG
Note: The following floating-point exceptions are signalling: IEEE_INVALID_FLAG
Note: The following floating-point exceptions are signalling: IEEE_INVALID_FLAG IEEE_DIVIDE_BY_ZERO
Note: The following floating-point exceptions are signalling: IEEE_INVALID_FLAG
Note: The following floating-point exceptions are signalling: IEEE_INVALID_FLAG
Note: The following floating-point exceptions are signalling: IEEE_INVALID_FLAG
Note: The following floating-point exceptions are signalling: IEEE_INVALID_FLAG
Note: The following floating-point exceptions are signalling: IEEE_INVALID_FLAG
Note: The following floating-point exceptions are signalling: IEEE_INVALID_FLAG
Note: The following floating-point exceptions are signalling: IEEE_INVALID_FLAG
Note: The following floating-point exceptions are signalling: IEEE_INVALID_FLAG
Note: The following floating-point exceptions are signalling: IEEE_INVALID_FLAG
Note: The following floating-point exceptions are signalling: IEEE_INVALID_FLAG
Note: The following floating-point exceptions are signalling: IEEE_INVALID_FLAG
Note: The following floating-point exceptions are signalling: IEEE_INVALID_FLAG
Note: The following floating-point exceptions are signalling: IEEE_INVALID_FLAG
Note: The following floating-point exceptions are signalling: IEEE_INVALID_FLAG
Note: The following floating-point exceptions are signalling: IEEE_INVALID_FLAG
Note: The following floating-point exceptions are signalling: IEEE_INVALID_FLAG
Note: The following floating-point exceptions are signalling: IEEE_INVALID_FLAG
Note: The following floating-point exceptions are signalling: IEEE_INVALID_FLAG
Note: The following floating-point exceptions are signalling: IEEE_INVALID_FLAG IEEE_DIVIDE_BY_ZERO
Note: The following floating-point exceptions are signalling: IEEE_INVALID_FLAG
Note: The following floating-point exceptions are signalling: IEEE_INVALID_FLAG
Note: The following floating-point exceptions are signalling: IEEE_INVALID_FLAG
Note: The following floating-point exceptions are signalling: IEEE_INVALID_FLAG
Note: The following floating-point exceptions are signalling: IEEE_INVALID_FLAG
Note: The following floating-point exceptions are signalling: IEEE_INVALID_FLAG
Note: The following floating-point exceptions are signalling: IEEE_INVALID_FLAG
Note: The following floating-point exceptions are signalling: IEEE_INVALID_FLAG
Note: The following floating-point exceptions are signalling: IEEE_INVALID_FLAG
Note: The following floating-point exceptions are signalling: IEEE_INVALID_FLAG
Note: The following floating-point exceptions are signalling: IEEE_INVALID_FLAG
Note: The following floating-point exceptions are signalling: IEEE_INVALID_FLAG
Note: The following floating-point exceptions are signalling: IEEE_INVALID_FLAG
Note: The following floating-point exceptions are signalling: IEEE_INVALID_FLAG
Note: The following floating-point exceptions are signalling: IEEE_INVALID_FLAG
Note: The following floating-point exceptions are signalling: IEEE_INVALID_FLAG
